Title = "TSurf curve FE data" 
Variables = "CoordinateX" "CoordinateY" "CoordinateZ" 
Zone T= "intersection"
Nodes=264, Elements=264, ZONETYPE=FELineSeg
DATAPACKING=POINT
2.523580182718117371e+01 3.078892090665393155e+00 5.966673240534476896e+00
2.523687035052772387e+01 3.080019569408662061e+00 5.956325603098981070e+00
2.523803538811876024e+01 3.081253096572652339e+00 5.945004784506542350e+00
2.524077182600020208e+01 3.082569125975025859e+00 5.932890418077418460e+00
2.524429195364931289e+01 3.083925826340046417e+00 5.919727276838814944e+00
2.524971509236850764e+01 3.085196013261347403e+00 5.905849916524839038e+00
2.525635317040965688e+01 3.086529464738316353e+00 5.890968640058562578e+00
2.526510227892973859e+01 3.087921637552990983e+00 5.875429328184922362e+00
2.527571912303645973e+01 3.089252418965894531e+00 5.859092554819042675e+00
2.528829280878143138e+01 3.090449012897047432e+00 5.841898982361608539e+00
2.530308967394245556e+01 3.091698337213091730e+00 5.823941860154393524e+00
2.532029128750642499e+01 3.092999213817938298e+00 5.805245769005882295e+00
2.533992471869764174e+01 3.094082257674187986e+00 5.785652024713942687e+00
2.536226242424741173e+01 3.095054723838076782e+00 5.765237135067642349e+00
2.538750283587269152e+01 3.096051260950946293e+00 5.743989995151628669e+00
2.541564276216512042e+01 3.096924598096188141e+00 5.721607864621160999e+00
2.544700560022495139e+01 3.097513943780962453e+00 5.698149039457374165e+00
2.548191739958124202e+01 3.098232066589961420e+00 5.673687941946540469e+00
2.552043708162947766e+01 3.098337731506506820e+00 5.647865878961138009e+00
2.556304161663361540e+01 3.098650680453796102e+00 5.620925988536686901e+00
2.560988382043322531e+01 3.098445080219189407e+00 5.592579505534899020e+00
2.566140945991006461e+01 3.098252236955387762e+00 5.562982836092530192e+00
2.571784201256168245e+01 3.097394197895307233e+00 5.531901176026145173e+00
2.577963990939591810e+01 3.096348004922978792e+00 5.499475040351795130e+00
2.584717062647176178e+01 3.094912479627928370e+00 5.465675270702056388e+00
2.592082539283010689e+01 3.092997287588778565e+00 5.430508188301922168e+00
2.600098660781358362e+01 3.090576361644141290e+00 5.393940276623150787e+00
2.608805267591663934e+01 3.087494990525923022e+00 5.355975323806785759e+00
2.618255178720177767e+01 3.084048052670198992e+00 5.316895263586442155e+00
2.628476087736646605e+01 3.079751986986745127e+00 5.276474785858689565e+00
2.639511794523916421e+01 3.074864763721992134e+00 5.234835201365053869e+00
2.651404430826218217e+01 3.069623507238695481e+00 5.192109651152509109e+00
2.664218953292168379e+01 3.066452972274907207e+00 5.148970619732022413e+00
2.677956259084410817e+01 3.063137872449396060e+00 5.104805050496122654e+00
2.692641074966084602e+01 3.059673416599144602e+00 5.059548363278214111e+00
2.708300324390249969e+01 3.056047553650820703e+00 5.013361010631673054e+00
2.724953479848734261e+01 3.052270245570827267e+00 4.966359351848653070e+00
2.742619460028764422e+01 3.048483452413324191e+00 4.918883046903832934e+00
2.761320683394332676e+01 3.045282842413250535e+00 4.871733185158835688e+00
2.781067094080324509e+01 3.043837755864123640e+00 4.825653471693640562e+00
2.801837690746551601e+01 3.042245708008664451e+00 4.780711030562555308e+00
2.823622133593711681e+01 3.040540385862383843e+00 4.737863149437729682e+00
2.846387219728443796e+01 3.038775557523072379e+00 4.697596808548314407e+00
2.870096223462046225e+01 3.037061031797872346e+00 4.660988402962307653e+00
2.894686197100364211e+01 3.035437733221579837e+00 4.628337931790975190e+00
2.920089163943031352e+01 3.033879282412116130e+00 4.600561927716010580e+00
2.946213059212740504e+01 3.032252036158602504e+00 4.577497430562296188e+00
2.972963658959631772e+01 3.030408460392357561e+00 4.559758270164701699e+00
3.000232429549152258e+01 3.028394030828673422e+00 4.547462559927332393e+00
3.027903326139575668e+01 3.026304530458481690e+00 4.540389681411772571e+00
3.055856053554307650e+01 3.024135802456719535e+00 4.538474462537949172e+00
3.083966494722533014e+01 3.021893756682074716e+00 4.541491803583745046e+00
3.112110181383013696e+01 3.020799490485942318e+00 4.549070807986985265e+00
3.140164846086940287e+01 3.020076125343075457e+00 4.560377174006727152e+00
3.168011905699106023e+01 3.019521590793218468e+00 4.574746084682290714e+00
3.195537695118275323e+01 3.019124606260550792e+00 4.591587431205604197e+00
3.222634602930074266e+01 3.018830875713838680e+00 4.610359359110836941e+00
3.249202364923010578e+01 3.018733089409338710e+00 4.630579782722282545e+00
3.275149469459256579e+01 3.018665811002003263e+00 4.651785038212486789e+00
3.300393106689908507e+01 3.018800596181503426e+00 4.673644212651844931e+00
3.324859993587786988e+01 3.019102197712148161e+00 4.695932219318799561e+00
3.348488457409897734e+01 3.019488424737006849e+00 4.718350929630829249e+00
3.371225938133865441e+01 3.020148579370856012e+00 4.740815629791158337e+00
3.393032480201338785e+01 3.020762505225020877e+00 4.763107166005229764e+00
3.413876865725300291e+01 3.021783964483002904e+00 4.785190812006957728e+00
3.433739537696112620e+01 3.023145193047245716e+00 4.806933102238907018e+00
3.452611203024676456e+01 3.024569036506585373e+00 4.828170615277936228e+00
3.470491567157289126e+01 3.026038116245812759e+00 4.848737261266108156e+00
3.487387470799168199e+01 3.027801004937181073e+00 4.868554877543364690e+00
3.503315149576955179e+01 3.029382340863836731e+00 4.887406703557701348e+00
3.518295409471760848e+01 3.030967817294961453e+00 4.905183395547876302e+00
3.532353781919310620e+01 3.032577504957809200e+00 4.921831230951442926e+00
3.545520848550464876e+01 3.034113858269101627e+00 4.937252304711503115e+00
3.557829862950855926e+01 3.035620262632261923e+00 4.951403655248709512e+00
3.569315967729684047e+01 3.037081468341633617e+00 4.964315054654706572e+00
3.580016643780557217e+01 3.038416448238228984e+00 4.975985299031610687e+00
3.589970095397028871e+01 3.039633840263936015e+00 4.986449417786968930e+00
3.599215106055579128e+01 3.040735670762932941e+00 4.995748705949961455e+00
3.607790313498116319e+01 3.041729317508863772e+00 5.003955979471188975e+00
3.615733755209964073e+01 3.042597021933501011e+00 5.011185133075627185e+00
3.623083832248811120e+01 3.043351678770374491e+00 5.017437739198734370e+00
3.629877060378739628e+01 3.044001399074861780e+00 5.022818457705500172e+00
3.636148167733863801e+01 3.044567362321161763e+00 5.027537860566418715e+00
3.641933056045206030e+01 3.045047045156427767e+00 5.031481640810516076e+00
3.647263511917837064e+01 3.045482355833783572e+00 5.034886431908285331e+00
3.652171650654292989e+01 3.045826260467183744e+00 5.037761479925632280e+00
3.656687159704985390e+01 3.046117956446947161e+00 5.040207211181616742e+00
3.660838973189736834e+01 3.046358315468042033e+00 5.042207771279811013e+00
3.664652846505568817e+01 3.046581524815648478e+00 5.044033475431412228e+00
3.668155778183722049e+01 3.046743256297981706e+00 5.045356308272422652e+00
3.671370124038838867e+01 3.046889483935374621e+00 5.046545099313329175e+00
3.674318153669184994e+01 3.047022751165539223e+00 5.047635210348352608e+00
3.677021521149362826e+01 3.047115265694686936e+00 5.048395526086568275e+00
3.679498933514994974e+01 3.047195747666441523e+00 5.049052353679993388e+00
3.681768329474111567e+01 3.047267755817576695e+00 5.049653647944444046e+00
3.683846473309646541e+01 3.047329121226441728e+00 5.050203248456879734e+00
3.685749088780021765e+01 3.047375650946877901e+00 5.050620363159146642e+00
3.687490452724165380e+01 3.047412609116410653e+00 5.050943279627622573e+00
3.689083697527257044e+01 3.047448193567557251e+00 5.051239129038047615e+00
3.690541077911478851e+01 3.047478190580008128e+00 5.051509172863405617e+00
3.691873888118477254e+01 3.047505623585699208e+00 5.051756134583675895e+00
3.693092533215892814e+01 3.047530706750366303e+00 5.051981942195348907e+00
3.694206590244601074e+01 3.047552423918666875e+00 5.052188096080102220e+00
3.695224850293627838e+01 3.047572670731365729e+00 5.052384273503466083e+00
3.696155386327976089e+01 3.047593137636005256e+00 5.052581121169281708e+00
3.697005650184933501e+01 3.047612940570821216e+00 5.052770841540165314e+00
3.697782486929736478e+01 3.047631033363185971e+00 5.052944178033460076e+00
3.698492155226756495e+01 3.047647561779526004e+00 5.053102527152281809e+00
3.699140395513257573e+01 3.047660579107188017e+00 5.053246696233822277e+00
3.699732466215751003e+01 3.047672464151403915e+00 5.053378372173567001e+00
3.700273185925964725e+01 3.047684208611439072e+00 5.053498830331087710e+00
3.700766969071499091e+01 3.047694933606865053e+00 5.053608832254084859e+00
3.701217856668371553e+01 3.047704726908758044e+00 5.053709278174849828e+00
3.701629547375524254e+01 3.047713668852182423e+00 5.053800992057504438e+00
3.702005425568665942e+01 3.047721832945951892e+00 5.053884727852118175e+00
3.702348587269385405e+01 3.047729286435816753e+00 5.053961175271028949e+00
3.702661864066172370e+01 3.047736090824024302e+00 5.054030965117823904e+00
3.702947845160256435e+01 3.047742302348159349e+00 5.054094674198569948e+00
3.703208897664476495e+01 3.047747972422034657e+00 5.054152829843871153e+00
3.703447185278020726e+01 3.047753148041309590e+00 5.054205914069108019e+00
3.703664685454000960e+01 3.047757872156365622e+00 5.054254367398928416e+00
3.703863205170735284e+01 3.047762184014867426e+00 5.054298592380665589e+00
3.704044395411323620e+01 3.047766119476251756e+00 5.054338956810016548e+00
3.704209764449866782e+01 3.047769711300310380e+00 5.054375796690861122e+00
3.704360690036477166e+01 3.047772989411846822e+00 5.054409418949753707e+00
3.704498430567202405e+01 3.047775981143288959e+00 5.054440103924305205e+00
3.704624135319127021e+01 3.047778711456994305e+00 5.054468107643279140e+00
3.704738853825328704e+01 3.047781203148873796e+00 5.054493663915096135e+00
3.704843544459004079e+01 3.047783477034844424e+00 5.054516986240145116e+00
3.704977116513754964e+01 3.049720650274937661e+00 5.068168759655862665e+00
3.704877254925297336e+01 3.049772766760954656e+00 5.068479278122591580e+00
3.704767846746133131e+01 3.049829865490582659e+00 5.068819481603894062e+00
3.704647981407279644e+01 3.049892421678130017e+00 5.069192201503603279e+00
3.704516661902839303e+01 3.049960955648224115e+00 5.069600538000150536e+00
3.704372796667998813e+01 3.050036037074583373e+00 5.070047885301832480e+00
3.704215190710548455e+01 3.050118289608359845e+00 5.070537959223251789e+00
3.704042535930678071e+01 3.050208395930119387e+00 5.071074827285807274e+00
3.703853400558799791e+01 3.050307103262098085e+00 5.071662941560642679e+00
3.703646217635912308e+01 3.050415229380161630e+00 5.072307174488847714e+00
3.703419272455531086e+01 3.050533669167698303e+00 5.073012857930617514e+00
3.703170688880590689e+01 3.050663401756649851e+00 5.073785825712691100e+00
3.702898414442943675e+01 3.050805498303897245e+00 5.074632459961289754e+00
3.702600204127237049e+01 3.050961130454243442e+00 5.075559741525963453e+00
3.702273602735147762e+01 3.051131579544297256e+00 5.076575304817808387e+00
3.701915925720237510e+01 3.051318246604516560e+00 5.077687497403261752e+00
3.701524238378306109e+01 3.051522663219494280e+00 5.078905444711450556e+00
3.701095333273136845e+01 3.051746503309176628e+00 5.080239120228595695e+00
3.700625705773213525e+01 3.051991595895935383e+00 5.081699421566298724e+00
3.700111516371264031e+01 3.052259061612630386e+00 5.083298039571153559e+00
3.699548593828841803e+01 3.052551816248588512e+00 5.085048152192969795e+00
3.698932374927315436e+01 3.052872288296858194e+00 5.086963961911165732e+00
3.698257879221608846e+01 3.053223067897777643e+00 5.089060952809486338e+00
3.697519676117386922e+01 3.053607154004722712e+00 5.091356057545976199e+00
3.696711847396381501e+01 3.054028053597663828e+00 5.093867796253487512e+00
3.695827930588509957e+01 3.054488597045740939e+00 5.096616111586703468e+00
3.694853438345273133e+01 3.054950651046702603e+00 5.099371792932459790e+00
3.693782838573488192e+01 3.055429968448367006e+00 5.102230054361749367e+00
3.692611611142501005e+01 3.055952191693095621e+00 5.105344154298181003e+00
3.691330711553820976e+01 3.056522149982984438e+00 5.108742896466792693e+00
3.689930337074621036e+01 3.057144596765677402e+00 5.112458497601248375e+00
3.688399689423140870e+01 3.057825405610087088e+00 5.116519857284520079e+00
3.686727045579764450e+01 3.058569587797135281e+00 5.120958033931712450e+00
3.684893460548922661e+01 3.059266679588046323e+00 5.125580402132806412e+00
3.682886806427579529e+01 3.059991851653280026e+00 5.130474191886197133e+00
3.680696806317533998e+01 3.060890274096152108e+00 5.135839011826449862e+00
3.678306498276128877e+01 3.061870870571890890e+00 5.141694523972343944e+00
3.675695138522526406e+01 3.062824583073961549e+00 5.147958396859895203e+00
3.672841988230244681e+01 3.063850769738915236e+00 5.154576844746571851e+00
3.669731783207452480e+01 3.064986883548204588e+00 5.161795367443702709e+00
3.666340682078218549e+01 3.066149860709964869e+00 5.169577494283202235e+00
3.662641346758866945e+01 3.067253013178836252e+00 5.177797347877713285e+00
3.658614486560191636e+01 3.068404390198360421e+00 5.186732730193177154e+00
3.654232354163655572e+01 3.069972916411043862e+00 5.196318105291156009e+00
3.649464585497906199e+01 3.071291458592160240e+00 5.206595928035600451e+00
3.644281791350460509e+01 3.072885304108199378e+00 5.217553081099618240e+00
3.638653305593977194e+01 3.074218784876956434e+00 5.229340417533834717e+00
3.632545249605585269e+01 3.075825301123507050e+00 5.241887044413151564e+00
3.625923524285803268e+01 3.077446200014328337e+00 5.255286320417398294e+00
3.618753940409211367e+01 3.079158310150715394e+00 5.269649345091927728e+00
3.610997073556626447e+01 3.080767113497320686e+00 5.284913806481231546e+00
3.602616112223116573e+01 3.082422414632786545e+00 5.301153898689975108e+00
3.593573031388370964e+01 3.084126308361352375e+00 5.318430510746771311e+00
3.583828534935461363e+01 3.085951050789111694e+00 5.336743879032765925e+00
3.573343647270478840e+01 3.087656312858485741e+00 5.356134720479028388e+00
3.562081234866452206e+01 3.089288505186482237e+00 5.376662390486155019e+00
3.550003913699335811e+01 3.090882403699584557e+00 5.398315322003427674e+00
3.537077671506612120e+01 3.092465438148014556e+00 5.421157745501290925e+00
3.523269534474528797e+01 3.093786693646755737e+00 5.445180053759379746e+00
3.508550368575067324e+01 3.095038483453192768e+00 5.470355553258418269e+00
3.492897105980325989e+01 3.096325103612020069e+00 5.496776583581162612e+00
3.476288287438357827e+01 3.097264887354004070e+00 5.524336896097040039e+00
3.458709793743721406e+01 3.097891492644760270e+00 5.552959857609377714e+00
3.440156099940008971e+01 3.098408438979348478e+00 5.582669852559030588e+00
3.420628407337935073e+01 3.098762106341537592e+00 5.613404803871614668e+00
3.400134557364947341e+01 3.098588560428326755e+00 5.644965166826936276e+00
3.378694656693958365e+01 3.098145999434132936e+00 5.677302627524031919e+00
3.356336940547421932e+01 3.097258895725613304e+00 5.710226923314652758e+00
3.333101092934140297e+01 3.096107101950019924e+00 5.743599842345347817e+00
3.309037695168405691e+01 3.094507065560948789e+00 5.777258126455782516e+00
3.284208422242713254e+01 3.092604003258204504e+00 5.811067291655493072e+00
3.258685695518472158e+01 3.090354138177325183e+00 5.844891642888060623e+00
3.232552422511571422e+01 3.087640179508823746e+00 5.878619077698085782e+00
3.205901338227334207e+01 3.084466155289593114e+00 5.912202818347729760e+00
3.178832702461614446e+01 3.081177260976232013e+00 5.945598092365094622e+00
3.151453671973377269e+01 3.077544595976488218e+00 5.978722769791411373e+00
3.123876157216755090e+01 3.073392500672009309e+00 6.011481151282654700e+00
3.096214746445640742e+01 3.069013669060638438e+00 6.043798083229379614e+00
3.068585294654277007e+01 3.064625857252122554e+00 6.075584762564925079e+00
3.041103242930623551e+01 3.059669116448677340e+00 6.106657402438761650e+00
3.013881521965817356e+01 3.054605821763031415e+00 6.136995699392742587e+00
2.987028571198532134e+01 3.049437496553087268e+00 6.166501991251370995e+00
2.960646155548585057e+01 3.044324227823151041e+00 6.195059077298061823e+00
2.934829606872552077e+01 3.038901542604329098e+00 6.222539996555015662e+00
2.909663474584619891e+01 3.033583018740769521e+00 6.248790613044903353e+00
2.885224750265783555e+01 3.028291902926000478e+00 6.273766981515226604e+00
2.861576003637398458e+01 3.023186404296573926e+00 6.297061042749668935e+00
2.838770708147321287e+01 3.018193548725108588e+00 6.318364037749319984e+00
2.816852710515034630e+01 3.013774888235809524e+00 6.337592856418846843e+00
2.795855971244613869e+01 3.009556790303697937e+00 6.354520127996737600e+00
2.775802224523830475e+01 3.006179081402236886e+00 6.368851970767102522e+00
2.756708582624148107e+01 3.003141841225021036e+00 6.380631658954552421e+00
2.738582326726933402e+01 3.000774456722733685e+00 6.390012866684966042e+00
2.721420843758017583e+01 2.999011798622775782e+00 6.396623000441757689e+00
2.705217646747216165e+01 2.997831882483178223e+00 6.400756928561714965e+00
2.689958839360145149e+01 2.997519589293656139e+00 6.402487316896848135e+00
2.675625656448216461e+01 2.997706864846224839e+00 6.401762327467668712e+00
2.662194704479201945e+01 2.998456355165037834e+00 6.398919366562344280e+00
2.649638528767938439e+01 2.999697242578892364e+00 6.394066830784326250e+00
2.637927289809979214e+01 3.001403443431406082e+00 6.387299784644074663e+00
2.627027270363011979e+01 3.003450820096907670e+00 6.378959009581163464e+00
2.616906131099491262e+01 3.006101543158603562e+00 6.369021976932863538e+00
2.607524963227649906e+01 3.008785553161463788e+00 6.357858646711756379e+00
2.598847736890468951e+01 3.011815456304978156e+00 6.345651112199416133e+00
2.590838855220615500e+01 3.014920160895464107e+00 6.332425847549977505e+00
2.583463725333289318e+01 3.018314713461473175e+00 6.318298769828233574e+00
2.576682627947394266e+01 3.021663632234757202e+00 6.303551615245432060e+00
2.570461988851364055e+01 3.025118834169994830e+00 6.288264391109672502e+00
2.564767508406081120e+01 3.028540471115894306e+00 6.272537462058925151e+00
2.559566196787434222e+01 3.031875779789578118e+00 6.256482936047375709e+00
2.554831979624893989e+01 3.035376792763494702e+00 6.240093080828033933e+00
2.550534210547836622e+01 3.038727517136619927e+00 6.223445244222461703e+00
2.546646910211760328e+01 3.042127117587616780e+00 6.206627482394034168e+00
2.543133210292735669e+01 3.045234991583527506e+00 6.189875857190498820e+00
2.539991922098563393e+01 3.048464233564347037e+00 6.172874984058649872e+00
2.537180088785285292e+01 3.051416775791131020e+00 6.156021121422779352e+00
2.534691914907157084e+01 3.054296042184841742e+00 6.139146771200981512e+00
2.532508276798121827e+01 3.057167820426617499e+00 6.122359966636506279e+00
2.530608250537445159e+01 3.059890375284933572e+00 6.105757824368573949e+00
2.528992915711569367e+01 3.062516672460462885e+00 6.089233143459184205e+00
2.527629245512842360e+01 3.064977469033768998e+00 6.073056293912519443e+00
2.526493623809041722e+01 3.067200281190276545e+00 6.057355886023580105e+00
2.525589790289922121e+01 3.069220330339966551e+00 6.042078471575423215e+00
2.524897670440892483e+01 3.071213432181362446e+00 6.027439066205039886e+00
2.524347733987585229e+01 3.073087806125682775e+00 6.013664365950346813e+00
2.524027539899276817e+01 3.074873551411241301e+00 6.000480065493774440e+00
2.523771852119682535e+01 3.076388421308293264e+00 5.988351432860721246e+00
2.523674803325670979e+01 3.077738314296416089e+00 5.977028772656457711e+00
3.704859677533471540e+01 3.047975777690771437e+00 5.056230978596583547e+00
3.704875645527420858e+01 3.048168096084412859e+00 5.057945124181285834e+00
3.704891613521369464e+01 3.048360414478053393e+00 5.059659269765987233e+00
3.704907983716386610e+01 3.048581045485587282e+00 5.061369066082804125e+00
3.704925266915729054e+01 3.048865946682925099e+00 5.063068989476069426e+00
3.704942550115070077e+01 3.049150847880262027e+00 5.064768912869333839e+00
3.704959833314413231e+01 3.049435749077599844e+00 5.066468836262598252e+00
130 264
264 263
263 262
262 261
261 260
260 259
259 258
258 129
129 128
128 127
127 126
126 125
125 124
124 123
123 122
122 121
121 120
120 119
119 118
118 117
117 116
116 115
115 114
114 113
113 112
112 111
111 110
110 109
109 108
108 107
107 106
106 105
105 104
104 103
103 102
102 101
101 100
100 99
99 98
98 97
97 96
96 95
95 94
94 93
93 92
92 91
91 90
90 89
89 88
88 87
87 86
86 85
85 84
84 83
83 82
82 81
81 80
80 79
79 78
78 77
77 76
76 75
75 74
74 73
73 72
72 71
71 70
70 69
69 68
68 67
67 66
66 65
65 64
64 63
63 62
62 61
61 60
60 59
59 58
58 57
57 56
56 55
55 54
54 53
53 52
52 51
51 50
50 49
49 48
48 47
47 46
46 45
45 44
44 43
43 42
42 41
41 40
40 39
39 38
38 37
37 36
36 35
35 34
34 33
33 32
32 31
31 30
30 29
29 28
28 27
27 26
26 25
25 24
24 23
23 22
22 21
21 20
20 19
19 18
18 17
17 16
16 15
15 14
14 13
13 12
12 11
11 10
10 9
9 8
8 7
7 6
6 5
5 4
4 3
3 2
2 1
1 257
257 256
256 255
255 254
254 253
253 252
252 251
251 250
250 249
249 248
248 247
247 246
246 245
245 244
244 243
243 242
242 241
241 240
240 239
239 238
238 237
237 236
236 235
235 234
234 233
233 232
232 231
231 230
230 229
229 228
228 227
227 226
226 225
225 224
224 223
223 222
222 221
221 220
220 219
219 218
218 217
217 216
216 215
215 214
214 213
213 212
212 211
211 210
210 209
209 208
208 207
207 206
206 205
205 204
204 203
203 202
202 201
201 200
200 199
199 198
198 197
197 196
196 195
195 194
194 193
193 192
192 191
191 190
190 189
189 188
188 187
187 186
186 185
185 184
184 183
183 182
182 181
181 180
180 179
179 178
178 177
177 176
176 175
175 174
174 173
173 172
172 171
171 170
170 169
169 168
168 167
167 166
166 165
165 164
164 163
163 162
162 161
161 160
160 159
159 158
158 157
157 156
156 155
155 154
154 153
153 152
152 151
151 150
150 149
149 148
148 147
147 146
146 145
145 144
144 143
143 142
142 141
141 140
140 139
139 138
138 137
137 136
136 135
135 134
134 133
133 132
132 131
131 130
