Title = "TSurf curve FE data" 
Variables = "CoordinateX" "CoordinateY" "CoordinateZ" 
Zone T= "int_body_wing_000"
Nodes=2003, Elements=2003, ZONETYPE=FELineSeg
DATAPACKING=POINT
3.049509156928267473e+01 3.023738412959380728e+00 4.591906637577448436e+00
3.049509349279962223e+01 3.023738402041002971e+00 4.591906413586789526e+00
3.052712345942540395e+01 3.023540409207196245e+00 4.588174660513152148e+00
3.055290586592058233e+01 3.023381087780766308e+00 4.585170812539560714e+00
3.055290623954953944e+01 3.023381085474918351e+00 4.585170769116444944e+00
3.055411132985804201e+01 3.023373612021195367e+00 4.585029405146121562e+00
3.046026076826286300e+01 3.023954373778927618e+00 4.595964788546535118e+00
3.043553804597591039e+01 3.024107815095464780e+00 4.598835908847179965e+00
3.045330364760948783e+01 3.023997514611161730e+00 4.596775078651775814e+00
3.052546082697403307e+01 3.023550686755122285e+00 4.588368370415527586e+00
3.045958465208627075e+01 3.023958567163912203e+00 4.596043563271131838e+00
3.045386696129426696e+01 3.023994029273531225e+00 4.596709736438310046e+00
3.045346725154755774e+01 3.023996502348109683e+00 4.596756100819283652e+00
3.422159799514368217e+01 3.016052777701156540e+00 4.097682186191094367e+00
3.430035535979029504e+01 3.016416996787248284e+00 4.085379833345515799e+00
3.430036691748657773e+01 3.016417055027949434e+00 4.085378028931377692e+00
3.430754571699657873e+01 3.016451924953602592e+00 4.084256995563234405e+00
3.430951345385091145e+01 3.016461549017345867e+00 4.083948074837857156e+00
3.437239229661161488e+01 3.016770519966146313e+00 4.074040906879777602e+00
3.430036120089911122e+01 3.016417026479963681e+00 4.085378921470224967e+00
3.440724650090912462e+01 3.016959479818650980e+00 4.068552298129621825e+00
3.443804202676187032e+01 3.017128192131901976e+00 4.063659490475850511e+00
3.437242979727871273e+01 3.016770725044411794e+00 4.074035002515469017e+00
3.440668615546677955e+01 3.016956418711451260e+00 4.068641110944618333e+00
3.093542471577846342e+01 3.021189933981574871e+00 4.540016421635288069e+00
3.093542498454428369e+01 3.021189932221393537e+00 4.540016389636551075e+00
3.100346961851546723e+01 3.020830686396394515e+00 4.531885326837063133e+00
3.100387659352005087e+01 3.020828536387671459e+00 4.531836632031654766e+00
3.094899159252860699e+01 3.021118489392998985e+00 4.538403700487303460e+00
3.094898853100886882e+01 3.021118505513221475e+00 4.538404064324379483e+00
3.155373531940800191e+01 3.018229734317546153e+00 4.465134725611297206e+00
3.155373577466968626e+01 3.018229732539841947e+00 4.465134669492294428e+00
3.155308277149106999e+01 3.018232512996947836e+00 4.465215195969783224e+00
3.147013050093244857e+01 3.018586817200819450e+00 4.475397095556638227e+00
3.151470136391661825e+01 3.018396366037519041e+00 4.469929858466150208e+00
3.155283674884899270e+01 3.018233560604500099e+00 4.465245535049612080e+00
3.151740274171420353e+01 3.018384823033725350e+00 4.469598497942753212e+00
3.138789945980794727e+01 3.018949573242435402e+00 4.485452312259378793e+00
3.144253385517820121e+01 3.018708328530226304e+00 4.478781879352262685e+00
3.144515364977726080e+01 3.018696776187103303e+00 4.478461305659031666e+00
3.147012060576568615e+01 3.018586853425199834e+00 4.475398308490767363e+00
3.144393724357100695e+01 3.018702131677583722e+00 4.478610537654226675e+00
3.144393736174046694e+01 3.018702131155587942e+00 4.478610523236015162e+00
3.138787642758840946e+01 3.018949667133290937e+00 4.485455123240700281e+00
3.154290476984508373e+01 3.018276021102671791e+00 4.466470354289306499e+00
3.154290303704115317e+01 3.018276028494977226e+00 4.466470566799115360e+00
3.102154175807118008e+01 3.020735326272560251e+00 4.529722999025585395e+00
3.102154473345462549e+01 3.020735312123177252e+00 4.529722643221758993e+00
2.532416939102914455e+01 3.053336631126873701e+00 4.270566742357731371e+00
2.532467157680770953e+01 3.053329396023438669e+00 4.270097059921670102e+00
2.532798174151456294e+01 3.053281705718895900e+00 4.267001155833343162e+00
2.532059089113794315e+01 3.053388981767229726e+00 4.273914183031871872e+00
2.530286008917995844e+01 3.053643773620598800e+00 4.291521713358871892e+00
2.530285916974995075e+01 3.053643786507099556e+00 4.291522698799205671e+00
2.532059043262497511e+01 3.053388988403911597e+00 4.273914627721957515e+00
2.529778560816653865e+01 3.053714653387116229e+00 4.297014506180590665e+00
2.529765907730528340e+01 3.053716420751691807e+00 4.297151468410500996e+00
2.529765878741115515e+01 3.053716424744124858e+00 4.297151782157172306e+00
2.529765860928771204e+01 3.053716427349157492e+00 4.297151975061636264e+00
2.526695713672796373e+01 3.053462151992790474e+00 4.571756397425248863e+00
2.526891813718546231e+01 3.053440512840162491e+00 4.574123932126471281e+00
2.526895567863666514e+01 3.053440193485399856e+00 4.574169176364029532e+00
2.528837414088435764e+01 3.053251656043164175e+00 4.594301366540566534e+00
2.530694446372651996e+01 3.053051722707236237e+00 4.610804629642342611e+00
2.527086612330834470e+01 3.053423941611075332e+00 4.576471572814594602e+00
2.527087240267903923e+01 3.053423886309249990e+00 4.576478876571303367e+00
2.530696497911819520e+01 3.053051498454264490e+00 4.610822388254327997e+00
2.528834640922442389e+01 3.053251934928636224e+00 4.594273964962195755e+00
2.531718226481096323e+01 3.052932515181628670e+00 4.618644430364985176e+00
2.531720278242597644e+01 3.052932276243812026e+00 4.618660137435975699e+00
2.531720341504609095e+01 3.052932270833775608e+00 4.618660620698765484e+00
2.523557976077998077e+01 3.053958803541712452e+00 4.525441083545476140e+00
2.524122558282572015e+01 3.053873189545563527e+00 4.536628749054457010e+00
2.524123792815615985e+01 3.053873002573183726e+00 4.536653363739000966e+00
2.525492749230448908e+01 3.053655211682358317e+00 4.557176976363654930e+00
2.526405828947701337e+01 3.053505901246501342e+00 4.568246687528953132e+00
2.526444740761633057e+01 3.053499537894547089e+00 4.568718216287404488e+00
2.525494705525668593e+01 3.053654899517688648e+00 4.557205701792751640e+00
2.523433364702220061e+01 3.053980753733872788e+00 4.522967454908961571e+00
2.523525441912993728e+01 3.053964534364787209e+00 4.524795268539739901e+00
2.561449417356329405e+01 3.050457004744145273e+00 4.758220773438355700e+00
2.561449435059238056e+01 3.050457005173013325e+00 4.758220827243385465e+00
2.553168513267404194e+01 3.051120487013198268e+00 4.730104398429522128e+00
2.554901180793713067e+01 3.050993260987875821e+00 4.736614343061358312e+00
2.554904500319101857e+01 3.050993017246746319e+00 4.736626815357039000e+00
2.557262012900199721e+01 3.050804045038475909e+00 4.744626817552999754e+00
2.557265902426198423e+01 3.050803733365315740e+00 4.744640021780116790e+00
2.559623125553591549e+01 3.050614512743174522e+00 4.752624359438130774e+00
2.559627332824167567e+01 3.050614175315664145e+00 4.752638626509772202e+00
2.544900217787071739e+01 3.051852281047453097e+00 4.695912225671799334e+00
2.544900883935569169e+01 3.051852226977508131e+00 4.695915325107183236e+00
2.538107875584690376e+01 3.052402496027675660e+00 4.661032157215307059e+00
2.538107959115441048e+01 3.052402489281838882e+00 4.661032647166829967e+00
2.538967155432067102e+01 3.052339063753482407e+00 4.666069768317041344e+00
2.541169811189197247e+01 3.052163875779140501e+00 4.677708680049727619e+00
2.538966626218322631e+01 3.052339103290623079e+00 4.666066713409113831e+00
2.541170185759288813e+01 3.052163845706660883e+00 4.677710630836597439e+00
2.543396678263004418e+01 3.051981218464737911e+00 4.688914334819996199e+00
2.543396496188382372e+01 3.051981233448420205e+00 4.688913423589137430e+00
2.545655396382982616e+01 3.051790003668317652e+00 4.699426220082747463e+00
2.547941266316745867e+01 3.051593286968613317e+00 4.709358746837476239e+00
2.544901521869104855e+01 3.051852170701082834e+00 4.695918294743332666e+00
2.545655152088610862e+01 3.051790023814334951e+00 4.699425083391608027e+00
2.547942055694450048e+01 3.051593218819512288e+00 4.709362158227400563e+00
2.550241350705037746e+01 3.051390840309948782e+00 4.718966843068362671e+00
2.550242499205572244e+01 3.051390739221758519e+00 4.718971640629111342e+00
2.552570025062749792e+01 3.051176054854495501e+00 4.727852651554989016e+00
2.552570313597921725e+01 3.051176028245299765e+00 4.727853752885502026e+00
2.553167710237367771e+01 3.051120554672849483e+00 4.730101378979384208e+00
2.532665918873251698e+01 3.052863740929807612e+00 4.625877254431355112e+00
2.532667538087948600e+01 3.052863623569610940e+00 4.625889611396515555e+00
2.534719129492383161e+01 3.052699569345055597e+00 4.640081079138243858e+00
2.536818952575084296e+01 3.052519707081762235e+00 4.653465840821469968e+00
2.534715658318000209e+01 3.052699855504640514e+00 4.640057887549820848e+00
2.536821176802068223e+01 3.052519511916046202e+00 4.653479575114131350e+00
2.531723395822394806e+01 3.052932049480836962e+00 4.618683931793754915e+00
2.538107789074981113e+01 3.052402503216268936e+00 4.661031649706995239e+00
2.583802009256829635e+01 3.049769175713236802e+00 4.814425701833453530e+00
2.583802039895701341e+01 3.049769176242938862e+00 4.814425763410381087e+00
2.590541448643154254e+01 3.049810175778604471e+00 4.827338778527254348e+00
2.590541459367610244e+01 3.049810176164165831e+00 4.827338797800856618e+00
2.583810936385666324e+01 3.049769269577758291e+00 4.814443652017966535e+00
2.586205879646994177e+01 3.049794391995578557e+00 4.819259208515139115e+00
2.586208242031274196e+01 3.049794416776393291e+00 4.819263958603266396e+00
2.588654406286430998e+01 3.049808718150190057e+00 4.823938459337514750e+00
2.588656611449285094e+01 3.049808732283804780e+00 4.823942699965821923e+00
2.590528347368443107e+01 3.049810165766583037e+00 4.827315173259824732e+00
2.544900918195231654e+01 3.051852223710813661e+00 4.695915484669259676e+00
2.553168105641878327e+01 3.051120519478954130e+00 4.730102866230138758e+00
2.553168119095774102e+01 3.051120518324209385e+00 4.730102916823398118e+00
2.522795613970498252e+01 3.054494227349554780e+00 4.403138706974192296e+00
2.522682405666065364e+01 3.054497330860125093e+00 4.406386429120317416e+00
2.522214548648774013e+01 3.054272280960758312e+00 4.490880716499063396e+00
2.523009246091580948e+01 3.054074443558325136e+00 4.514518386681514173e+00
2.521794319152832387e+01 3.054400682449341264e+00 4.466109752654809917e+00
2.522214214389151721e+01 3.054272383356236187e+00 4.490860877891244662e+00
2.523277677570293775e+01 3.054012720199085429e+00 4.519870655047219188e+00
2.523333718756208199e+01 3.053999835553336872e+00 4.520987283197288598e+00
2.523009593296781361e+01 3.054074357008112361e+00 4.514528773148296814e+00
2.523414176528276798e+01 3.053983557921170267e+00 4.522587348026946508e+00
2.522826349008033375e+01 3.054491525538900021e+00 4.402253041707042236e+00
2.579999157385904240e+01 3.047376395992489329e+00 3.967673713807262192e+00
3.558886933189378254e+01 3.026443643664145533e+00 3.871079336339181332e+00
3.559439764402631567e+01 3.026507306653858365e+00 3.870094418512556089e+00
3.551735644799474301e+01 3.025627370257919946e+00 3.883665730938702598e+00
3.558016225243373043e+01 3.026344082195436602e+00 3.872615535086634697e+00
3.558097156770107006e+01 3.026353319171703582e+00 3.872473111916918675e+00
3.558869554216757791e+01 3.026441643418115390e+00 3.871110275486016050e+00
3.551732298408629163e+01 3.025627009482660945e+00 3.883671623517527483e+00
3.559440794504956074e+01 3.026507441709517465e+00 3.870092587117618166e+00
2.697896183747857890e+01 3.048909012460645052e+00 4.901950836956170399e+00
2.697896203691188433e+01 3.048909011604659547e+00 4.901950834932810253e+00
2.693318011034918769e+01 3.049094467695167676e+00 4.902245982572417837e+00
2.697908274401957840e+01 3.048908501932237947e+00 4.901949739290457408e+00
2.687925529443059602e+01 3.049288264090339595e+00 4.902184486441939271e+00
2.692910957188256660e+01 3.049111092101053355e+00 4.902272224452945082e+00
2.686057662985029992e+01 3.049351930918800857e+00 4.902109627650704127e+00
2.693317956610197328e+01 3.049094469634104243e+00 4.902245986081197771e+00
2.522334587425292440e+01 3.054518745727079487e+00 4.416389807302506298e+00
2.521861222536680103e+01 3.054499376106548425e+00 4.440962315480344813e+00
2.522334380329190751e+01 3.054518737236736836e+00 4.416400561374858924e+00
2.521861274700592759e+01 3.054499453032204492e+00 4.440942713876635750e+00
3.270674477214673459e+01 3.014717117321508599e+00 4.317342319615245394e+00
3.270674527559008737e+01 3.014717116678368392e+00 4.317342252248886680e+00
3.300327761466048315e+01 3.014279329658352768e+00 4.276879450064300592e+00
3.300331729316422980e+01 3.014279306782665202e+00 4.276873979957843019e+00
3.284900925648368286e+01 3.014480372445845990e+00 4.298068769705693626e+00
3.284903387786921058e+01 3.014480353468676377e+00 4.298065405154801510e+00
3.366783506454029151e+01 3.049873291907670314e+00 3.241949529290452325e+00
3.368423405129595949e+01 3.049833057941779391e+00 3.243584989251655060e+00
3.362035941917963555e+01 3.049987195512288363e+00 3.237281211870497888e+00
3.366633811654206454e+01 3.049876894852095788e+00 3.241802037593391361e+00
3.368426097066498670e+01 3.049832985020619169e+00 3.243587672610395600e+00
3.359860351981855331e+01 3.050040581919795990e+00 3.235142300903512513e+00
3.359862291723181471e+01 3.050040534321668328e+00 3.235144207920645165e+00
3.334965172285296831e+01 3.050663713781149866e+00 3.211279725816190478e+00
3.334967453735358589e+01 3.050663641476825561e+00 3.211281855688620457e+00
3.327601201717219936e+01 3.050853481323387406e+00 3.204396851685861414e+00
3.327600510958731661e+01 3.050853499378956446e+00 3.204396206103088840e+00
3.392630370605358081e+01 3.014979132860798661e+00 4.143053309729564759e+00
3.392630396764726441e+01 3.014979133732405892e+00 4.143053270004545929e+00
3.409296382616240351e+01 3.015530604120399527e+00 4.117600472429197467e+00
3.409296436090796334e+01 3.015530606397536229e+00 4.117600390364422047e+00
3.362328131528411745e+01 3.014322790447233835e+00 4.188334645262433931e+00
3.369848788846910281e+01 3.014451300420177837e+00 4.177203843197651700e+00
3.346976039039581252e+01 3.014162855651823403e+00 4.210764507669837897e+00
3.349027173462564377e+01 3.014180642997892789e+00 4.207793449947045517e+00
3.354031376815872534e+01 3.014225363379485323e+00 4.200507256967696001e+00
3.354471208243249691e+01 3.014229459598385841e+00 4.199862148892990810e+00
3.349039334904493614e+01 3.014180748481480876e+00 4.207775833589208148e+00
3.320907560559811600e+01 3.014126082474148483e+00 4.248098767124254493e+00
3.320907627622126057e+01 3.014126082621749525e+00 4.248098672610968407e+00
3.320997107148370731e+01 3.014125791746754324e+00 4.247972480159710074e+00
3.323782642932197717e+01 3.014117369687974612e+00 4.244025218544823730e+00
3.328082024029553310e+01 3.014105301779489654e+00 4.237905040373513899e+00
3.328085952778917544e+01 3.014105302618157456e+00 4.237899449908733907e+00
3.314850797388736225e+01 3.014154825735487542e+00 4.256642177215185896e+00
3.314850309981202514e+01 3.014154827742709042e+00 4.256642864677534277e+00
3.104361772153147569e+01 3.020620515727692634e+00 4.527081830921208194e+00
3.104933770418932326e+01 3.020590781623317067e+00 4.526396776711410830e+00
3.109963903620533543e+01 3.020329706492096644e+00 4.520351960831260563e+00
3.104562912399582331e+01 3.020610064971586350e+00 4.526841188030194196e+00
3.104799276175049272e+01 3.020597784116738627e+00 4.526558405419012665e+00
3.104865919118579143e+01 3.020594314313740814e+00 4.526478316488504738e+00
3.104799266215866282e+01 3.020597784633636262e+00 4.526558417306422832e+00
3.132301915515790824e+01 3.019248726507052449e+00 4.493360704689445484e+00
3.132416435268670085e+01 3.019243444378087560e+00 4.493221622379151903e+00
3.134496234541880000e+01 3.019147515612873534e+00 4.490695757825776013e+00
3.135464777567830907e+01 3.019102741256201039e+00 4.489512954099547315e+00
3.135571319718007999e+01 3.019097815986857114e+00 4.489382844134007122e+00
3.134496385887021219e+01 3.019147508633547972e+00 4.490695574106370103e+00
3.132301895000712832e+01 3.019248727757274153e+00 4.493360729645615947e+00
3.109966103942472770e+01 3.020329601289487353e+00 4.520349317843300518e+00
3.656974764765261199e+01 3.051010459411957587e+00 3.686589328006045996e+00
3.657046765959849211e+01 3.051026061041924642e+00 3.686437239786717779e+00
3.656497929363609245e+01 3.050907328755450898e+00 3.687587421938433252e+00
3.656585149130011558e+01 3.050926118873623416e+00 3.687408355550238159e+00
3.663721631796867939e+01 3.052472441818103288e+00 3.672336362041356939e+00
3.656605362375005797e+01 3.050930474064114772e+00 3.687366829948902414e+00
3.656497324126573290e+01 3.050907217590834275e+00 3.687588668529864222e+00
3.656653705878908056e+01 3.050940870267250471e+00 3.687267495912776027e+00
3.656653461536739513e+01 3.050940817335333843e+00 3.687268011052930117e+00
3.647796803641840313e+01 3.048787521010423607e+00 3.705400080077147607e+00
3.647800318663288976e+01 3.048788246784586153e+00 3.705392857000751938e+00
3.644416991006901441e+01 3.047889477736884789e+00 3.712177891416694298e+00
3.646887708029530017e+01 3.048544844681159383e+00 3.707256542509468566e+00
3.646888186602359383e+01 3.048544972386882712e+00 3.707255570328269911e+00
3.647069965239726486e+01 3.048593551455597073e+00 3.706884515271370972e+00
3.647100220333484799e+01 3.048601638117904855e+00 3.706822727367491410e+00
3.644273664431133142e+01 3.047851454592024556e+00 3.712463378110869794e+00
3.638634834580201272e+01 3.046355540315613286e+00 3.723694746007610856e+00
2.803207942540060671e+01 3.041994456875221520e+00 4.850536011607080589e+00
2.803209462888356640e+01 3.041994328188112995e+00 4.850534802695939618e+00
2.810440119063769160e+01 3.041376871439819496e+00 4.844667739894197744e+00
2.810448917725116047e+01 3.041376165024578082e+00 4.844660406047038848e+00
2.808058985881478620e+01 3.041580102404904729e+00 4.846653413372956187e+00
2.808083735075382137e+01 3.041577990049805003e+00 4.846632773728672738e+00
2.804668921150244643e+01 3.041869652797007273e+00 4.849374224451623583e+00
2.804843961919316087e+01 3.041854699796597838e+00 4.849235031272953300e+00
2.817199326147639482e+01 3.040782689987928222e+00 4.839029740133833357e+00
2.817349618551491020e+01 3.040769476739908495e+00 4.838904379649028975e+00
2.817349629923959142e+01 3.040769475741569305e+00 4.838904369589572596e+00
2.817466223592022700e+01 3.040759235971826957e+00 4.838802974094630116e+00
2.817981887573189326e+01 3.040713948066562367e+00 4.838354536187119415e+00
2.807890331424610153e+01 3.041594863770247681e+00 4.846794085753590942e+00
2.805818554164893541e+01 3.041771976679251477e+00 4.848460062028248529e+00
2.807413475632872846e+01 3.041636600334462148e+00 4.847191825970907253e+00
2.807413491301024422e+01 3.041636599031865451e+00 4.847191813913896752e+00
2.782904035899238337e+01 3.043659259206175527e+00 4.865757707476408456e+00
2.782994408470110059e+01 3.043652074028935672e+00 4.865694697650105205e+00
2.781400152109117485e+01 3.043778827229182582e+00 4.866806266616200638e+00
2.802003966242431687e+01 3.042095888376584956e+00 4.851493326125822847e+00
2.802264700270659148e+01 3.042073922297580335e+00 4.851286007044508963e+00
2.796166992176472377e+01 3.042587761404530688e+00 4.856072966545560199e+00
2.797474092158495296e+01 3.042480845891247565e+00 4.855095385686177600e+00
2.797474103459983752e+01 3.042480844920025795e+00 4.855095376539218854e+00
2.790857367089229157e+01 3.043022619128545436e+00 4.860044067745860730e+00
2.789017301644306102e+01 3.043173320363359302e+00 4.861420265017418529e+00
2.789017289179759729e+01 3.043173321361403172e+00 4.861420274338165370e+00
2.787531301871269207e+01 3.043295237994194657e+00 4.862531668971720400e+00
2.783775354692116366e+01 3.043590650933854835e+00 4.865150237093236463e+00
2.787531262643597785e+01 3.043295241047319521e+00 4.862531695838629986e+00
2.827498473175751670e+01 3.039869427652865941e+00 4.830070963213022317e+00
2.827643484269168539e+01 3.039856384210259943e+00 4.829940190356946772e+00
2.827282729072189582e+01 3.039888833673010993e+00 4.830265528398721919e+00
2.827090712632087843e+01 3.039905694560667726e+00 4.830432511157046527e+00
2.827282703720244328e+01 3.039888835856082050e+00 4.830265549797133851e+00
2.703469848952886778e+01 3.046512126904687090e+00 3.523809983433364046e+00
2.682560499318715941e+01 3.045608008874772121e+00 3.584765943453531278e+00
2.683125334915495230e+01 3.045631656547680421e+00 3.583057402434727035e+00
2.675662642310859951e+01 3.045319320272705355e+00 3.605713740430647185e+00
2.675675334285964624e+01 3.045319851185738891e+00 3.605674973324593413e+00
2.682128943596205062e+01 3.045590048047527088e+00 3.586071366269341976e+00
2.678459275513112559e+01 3.045437319704234369e+00 3.597171890557446794e+00
2.678459468506435925e+01 3.045437327847859255e+00 3.597171301078173844e+00
2.675662623449249722e+01 3.045319319592964202e+00 3.605713798080230070e+00
2.673680487319734311e+01 3.045242433645855673e+00 3.611770223630635712e+00
2.675658314881923161e+01 3.045319147654079739e+00 3.605726961270944830e+00
2.667332791391421765e+01 3.044987684187656196e+00 3.631597077181984545e+00
2.668909302155186580e+01 3.045051581697328480e+00 3.626641165237567410e+00
2.673679840888860682e+01 3.045242408035453874e+00 3.611772225942516013e+00
2.668909663053964110e+01 3.045051596324824139e+00 3.626640030721978825e+00
2.675662605713256426e+01 3.045319318975196587e+00 3.605713852296786204e+00
2.667332649368094977e+01 3.044987678546197785e+00 3.631597523685802908e+00
2.659575538237266201e+01 3.044699314567082205e+00 3.656336516546733417e+00
2.659680536546689922e+01 3.044703026696017556e+00 3.655998332583854982e+00
2.651293010089454683e+01 3.044408157289899997e+00 3.683495922127979050e+00
2.651456803316611754e+01 3.044413882360650803e+00 3.682949320181791109e+00
2.651292234195799224e+01 3.044408130462399331e+00 3.683498511492651062e+00
2.651291463215550337e+01 3.044408109270015927e+00 3.683501086219255427e+00
2.659681058643801421e+01 3.044703041751506856e+00 3.655996649909634133e+00
2.659851364665056650e+01 3.044709362394432350e+00 3.655448214328915313e+00
2.659866117457286805e+01 3.044709909922627578e+00 3.655400706455175897e+00
2.667332529143809694e+01 3.044987674060370964e+00 3.631597901756862701e+00
2.916209023506239362e+01 3.032763354658553734e+00 4.741761738685555727e+00
2.916402575420875110e+01 3.032750350844026777e+00 4.741555208960507528e+00
2.916576372405004847e+01 3.032738674556315406e+00 4.741369764879816984e+00
2.916576399270385167e+01 3.032738672778297229e+00 4.741369736784763589e+00
2.917168337629886921e+01 3.032698613565836698e+00 4.740731959203884571e+00
2.917650785499197497e+01 3.032665964321949126e+00 4.740212156052198367e+00
2.939067638873181210e+01 3.031231890551449037e+00 4.716996025931443626e+00
2.939067676131845275e+01 3.031231887432362715e+00 4.716995985030901117e+00
2.944115141755314724e+01 3.030894486172837965e+00 4.711463369459719885e+00
2.946313661043034671e+01 3.030747524761375988e+00 4.709053537225724284e+00
2.946313673968353797e+01 3.030747523897761031e+00 4.709053523070845237e+00
2.946330274899752766e+01 3.030746409392714114e+00 4.709035167578313086e+00
2.936402138365061276e+01 3.031410299711809309e+00 4.719917750166302994e+00
2.934191525522517452e+01 3.031557584910168135e+00 4.722319919031086499e+00
2.936402120824816464e+01 3.031410300885835962e+00 4.719917769392949047e+00
2.926489821548390324e+01 3.032071211480698913e+00 4.730689044724902814e+00
2.926489837482976597e+01 3.032071210422371266e+00 4.730689027115830392e+00
2.923958383459710575e+01 3.032240058667157623e+00 4.733416258532908039e+00
2.928526472943769221e+01 3.031935560134063845e+00 4.728475915597759816e+00
2.931510142944415520e+01 3.031736832466576548e+00 4.725233713974981598e+00
2.932716822212435659e+01 3.031656171263469091e+00 4.723922441429029284e+00
2.931511629713244815e+01 3.031736740310419176e+00 4.725232099228936278e+00
2.946746620494279867e+01 3.030718621976546068e+00 4.708574839023924596e+00
2.946747034019358580e+01 3.030718596556577715e+00 4.708574382090580990e+00
2.798345470606139429e+01 3.050368444106569044e+00 3.290121275384178645e+00
2.799451940012752260e+01 3.050401640923579905e+00 3.287782728892502782e+00
2.799452086399545436e+01 3.050401645104778403e+00 3.287782432838382896e+00
2.803494939108725248e+01 3.050517120416465389e+00 3.279606087456753638e+00
2.803503949231606285e+01 3.050517377769297767e+00 3.279587865317747486e+00
2.828417027256141125e+01 3.051217895011721470e+00 3.231862184805547766e+00
2.828683330559999831e+01 3.051225562483546039e+00 3.231372417570049560e+00
2.829360067645705712e+01 3.051244614278756817e+00 3.230168474011323010e+00
2.835864317587321892e+01 3.051425880002851532e+00 3.218770397605340783e+00
2.841011496226617794e+01 3.051570231254995491e+00 3.209947456203849470e+00
2.842440757195213408e+01 3.051609578823675673e+00 3.207566226669364973e+00
2.838741129816212450e+01 3.051507728005135256e+00 3.213730018608453420e+00
2.835881513153064049e+01 3.051426327055015264e+00 3.218740255502910319e+00
2.838529203175510673e+01 3.051501700551486174e+00 3.214100851567708528e+00
2.838732686247418968e+01 3.051507493196236709e+00 3.213744302765415117e+00
2.828882749055075863e+01 3.051231385012572517e+00 3.231005682009754576e+00
2.828891181972328539e+01 3.051231631226972496e+00 3.230990174011177718e+00
2.828916819317079501e+01 3.051232341109598512e+00 3.230945245430186130e+00
2.838735204777871601e+01 3.051507565904767016e+00 3.213739890374158747e+00
2.838735193661579714e+01 3.051507565589789639e+00 3.213739909511815984e+00
2.752296224391441015e+01 3.048674951985141046e+00 3.394675076170299288e+00
2.752825766525781148e+01 3.048697023527280336e+00 3.393377648784716261e+00
2.751416676851757259e+01 3.048638292042848974e+00 3.396830054459102133e+00
2.751413488211099434e+01 3.048638176993554438e+00 3.396837872728206253e+00
2.790108051276755674e+01 3.050112463031894539e+00 3.307528771889873820e+00
2.797109960370999104e+01 3.050332104099369612e+00 3.292732831197611620e+00
2.797119232877273731e+01 3.050332308351856980e+00 3.292713209805893548e+00
2.772975768275007624e+01 3.049510807114153010e+00 3.345517705059987357e+00
2.773364450384152491e+01 3.049525975900349017e+00 3.344616224913444125e+00
2.790107489609453140e+01 3.050112445376156778e+00 3.307529958753942179e+00
2.790034306450414192e+01 3.050110011730590820e+00 3.307684564020610729e+00
2.790076541620144823e+01 3.050111416237100137e+00 3.307595337417823522e+00
2.781934423166711312e+01 3.049835890902822477e+00 3.325429809580240370e+00
2.787163391162600590e+01 3.050012996013960365e+00 3.313955105845320936e+00
2.787384875886248636e+01 3.050020497679055698e+00 3.313469071702913826e+00
2.781928104409078628e+01 3.049835721941503319e+00 3.325443690089159521e+00
2.773365184018281582e+01 3.049526002818141901e+00 3.344614522889847397e+00
2.780797123932802251e+01 3.049795158470268053e+00 3.327924851821806751e+00
2.780761324073026231e+01 3.049793874466710353e+00 3.328003392227609769e+00
3.578323083869833710e+01 3.029520393034422110e+00 3.836415752709089411e+00
3.578326120764045726e+01 3.029520966561420448e+00 3.836410361848275663e+00
3.579574022951785395e+01 3.029758791859271660e+00 3.834149960767563758e+00
3.579593633748597625e+01 3.029762530284493049e+00 3.834114417597316304e+00
3.577008397996353040e+01 3.029271267339481710e+00 3.838767174198606913e+00
3.567163358202636658e+01 3.027591178066836086e+00 3.856379399060235524e+00
3.567834530770285539e+01 3.027701807035532156e+00 3.855191403760465096e+00
3.570638311250623786e+01 3.028166277390642147e+00 3.850179269299645046e+00
3.574966055536510368e+01 3.028884350112896140e+00 3.842418542645711366e+00
3.567909412780473843e+01 3.027714150014430672e+00 3.855058860438985491e+00
3.568510431454042475e+01 3.027813252338277916e+00 3.853994294367999007e+00
3.568512101220038346e+01 3.027813526959789225e+00 3.853991351831197232e+00
3.570623159557533910e+01 3.028163763389196905e+00 3.850206440073897785e+00
3.574968715942563335e+01 3.028884817950224129e+00 3.842413778079068365e+00
3.582128483234130556e+01 3.030245732876558407e+00 3.829520179411204595e+00
3.582131896110499270e+01 3.030246451875908686e+00 3.829514010037497140e+00
3.576747918589625641e+01 3.029221906282228982e+00 3.839233062278403441e+00
3.567162098681396287e+01 3.027590987235270870e+00 3.856381632353726108e+00
3.543817987787878820e+01 3.024913465840240789e+00 3.897534609276719131e+00
3.548818785032327838e+01 3.025362607611674637e+00 3.888812241840646777e+00
3.548921380830395833e+01 3.025371866368383511e+00 3.888632340212536675e+00
3.548846098897207924e+01 3.025365060909386283e+00 3.888764601153305911e+00
3.548885155433193006e+01 3.025368578447408474e+00 3.888696270962085588e+00
3.548875037181187508e+01 3.025367660493146538e+00 3.888714118808276776e+00
3.548875055968363768e+01 3.025367662174634820e+00 3.888714086169747564e+00
3.558694196698751711e+01 3.026421463465907902e+00 3.871422442409829578e+00
3.558694767409019732e+01 3.026421528404134254e+00 3.871421442420494241e+00
2.557924837156434705e+01 3.049576522927747391e+00 4.086280253950083541e+00
2.556174935287634398e+01 3.049818706832351456e+00 4.096799947565497924e+00
2.557922715329315366e+01 3.049576816399402368e+00 4.086293008228926382e+00
2.554042710075324152e+01 3.050112337881913049e+00 4.109798322602550513e+00
2.556171956547383317e+01 3.049819117927683898e+00 4.096817996996669820e+00
2.551444694539249980e+01 3.050464952063176582e+00 4.126271004965292200e+00
2.551928503500342060e+01 3.050399531828728694e+00 4.123173355313787702e+00
2.551929779632993700e+01 3.050399358713220543e+00 4.123165253328134661e+00
2.554038016436003389e+01 3.050112975471277910e+00 4.109828015182615424e+00
2.551202688239107275e+01 3.050498177999359406e+00 4.127820743878339194e+00
2.551204873327068157e+01 3.050497877999885699e+00 4.127806750359010124e+00
2.565494990992138824e+01 3.048857259576466028e+00 4.043049330021903032e+00
2.565495495703412132e+01 3.048857211861068173e+00 4.043046581253626037e+00