Title = "TSurf curve FE data" 
Variables = "CoordinateX" "CoordinateY" "CoordinateZ" 
Zone T= "extracted_sharpness_002"
Nodes=31, Elements=30, ZONETYPE=FELineSeg
DATAPACKING=POINT
7.500000000000000000e-01 6.999999880790710449e-01 5.000000000000000000e-01
7.500000000000000000e-01 6.499999761581420898e-01 5.000000000000000000e-01
7.500000000000000000e-01 6.000000238418579102e-01 5.000000000000000000e-01
7.500000000000000000e-01 5.500000119209289551e-01 5.000000000000000000e-01
7.500000000000000000e-01 5.000000000000000000e-01 5.000000000000000000e-01
7.500000000000000000e-01 4.499999880790710449e-01 5.000000000000000000e-01
7.500000000000000000e-01 3.999999761581420898e-01 5.000000000000000000e-01
7.500000000000000000e-01 3.499999642372131348e-01 5.000000000000000000e-01
7.500000000000000000e-01 2.999999523162841797e-01 5.000000000000000000e-01
2.500000000000000000e-01 3.000000119209289551e-01 5.000000000000000000e-01
2.500000000000000000e-01 3.499999940395355225e-01 5.000000000000000000e-01
2.500000000000000000e-01 4.000000059604644775e-01 5.000000000000000000e-01
2.500000000000000000e-01 4.499999880790710449e-01 5.000000000000000000e-01
2.500000000000000000e-01 5.000000000000000000e-01 5.000000000000000000e-01
2.500000000000000000e-01 5.500000119209289551e-01 5.000000000000000000e-01
2.500000000000000000e-01 6.000000238418579102e-01 5.000000000000000000e-01
2.500000000000000000e-01 6.500000357627868652e-01 5.000000000000000000e-01
2.500000000000000000e-01 7.000000476837158203e-01 5.000000000000000000e-01
3.000000119209289551e-01 7.500000000000000000e-01 5.000000000000000000e-01
3.499999940395355225e-01 7.500000000000000000e-01 5.000000000000000000e-01
4.000000059604644775e-01 7.500000000000000000e-01 5.000000000000000000e-01
4.499999880790710449e-01 7.500000000000000000e-01 5.000000000000000000e-01
5.000000000000000000e-01 7.500000000000000000e-01 5.000000000000000000e-01
5.500000119209289551e-01 7.500000000000000000e-01 5.000000000000000000e-01
6.000000238418579102e-01 7.500000000000000000e-01 5.000000000000000000e-01
6.500000357627868652e-01 7.500000000000000000e-01 5.000000000000000000e-01
7.000000476837158203e-01 7.500000000000000000e-01 5.000000000000000000e-01
7.500000000000000000e-01 2.500000000000000000e-01 5.000000000000000000e-01
7.500000000000000000e-01 7.500000000000000000e-01 5.000000000000000000e-01
2.500000000000000000e-01 7.500000000000000000e-01 5.000000000000000000e-01
2.500000000000000000e-01 2.500000000000000000e-01 5.000000000000000000e-01
28 9
9 8
8 7
7 6
6 5
5 4
4 3
3 2
2 1
1 29
29 27
27 26
26 25
25 24
24 23
23 22
22 21
21 20
20 19
19 30
30 18
18 17
17 16
16 15
15 14
14 13
13 12
12 11
11 10
10 31
