Title = "TSurf curve FE data" 
Variables = "CoordinateX" "CoordinateY" "CoordinateZ" 
Zone T= "extracted_sharpness_001"
Nodes=91, Elements=90, ZONETYPE=FELineSeg
DATAPACKING=POINT
7.500000000000000000e-01 2.500000000000000000e-01 2.450000047683715820e+00
7.500000000000000000e-01 2.500000000000000000e-01 2.400000095367431641e+00
7.500000000000000000e-01 2.500000000000000000e-01 2.349999904632568359e+00
7.500000000000000000e-01 2.500000000000000000e-01 2.299999952316284180e+00
7.500000000000000000e-01 2.500000000000000000e-01 2.250000000000000000e+00
7.500000000000000000e-01 2.500000000000000000e-01 2.200000047683715820e+00
7.500000000000000000e-01 2.500000000000000000e-01 2.150000095367431641e+00
7.500000000000000000e-01 2.500000000000000000e-01 2.099999904632568359e+00
7.500000000000000000e-01 2.500000000000000000e-01 2.049999952316284180e+00
7.500000000000000000e-01 2.500000000000000000e-01 2.000000000000000000e+00
7.500000000000000000e-01 2.500000000000000000e-01 1.949999928474426270e+00
7.500000000000000000e-01 2.500000000000000000e-01 1.899999856948852539e+00
7.500000000000000000e-01 2.500000000000000000e-01 1.849999904632568359e+00
7.500000000000000000e-01 2.500000000000000000e-01 1.799999952316284180e+00
7.500000000000000000e-01 2.500000000000000000e-01 1.749999880790710449e+00
7.500000000000000000e-01 2.500000000000000000e-01 1.699999809265136719e+00
7.500000000000000000e-01 2.500000000000000000e-01 1.649999856948852539e+00
7.500000000000000000e-01 2.500000000000000000e-01 1.599999904632568359e+00
7.500000000000000000e-01 2.500000000000000000e-01 1.549999833106994629e+00
7.500000000000000000e-01 2.500000000000000000e-01 1.499999880790710449e+00
7.500000000000000000e-01 2.500000000000000000e-01 1.449999928474426270e+00
7.500000000000000000e-01 2.500000000000000000e-01 1.399999976158142090e+00
7.500000000000000000e-01 2.500000000000000000e-01 1.350000023841857910e+00
7.500000000000000000e-01 2.500000000000000000e-01 1.300000071525573730e+00
7.500000000000000000e-01 2.500000000000000000e-01 1.250000119209289551e+00
7.500000000000000000e-01 2.500000000000000000e-01 1.200000166893005371e+00
7.500000000000000000e-01 2.500000000000000000e-01 1.150000214576721191e+00
7.500000000000000000e-01 2.500000000000000000e-01 1.100000262260437012e+00
7.500000000000000000e-01 2.500000000000000000e-01 1.050000309944152832e+00
7.500000000000000000e-01 2.500000000000000000e-01 1.000000357627868652e+00
7.500000000000000000e-01 2.500000000000000000e-01 9.500004053115844727e-01
7.500000000000000000e-01 2.500000000000000000e-01 9.000004529953002930e-01
7.500000000000000000e-01 2.500000000000000000e-01 8.500005006790161133e-01
7.500000000000000000e-01 2.500000000000000000e-01 8.000005483627319336e-01
7.500000000000000000e-01 2.500000000000000000e-01 7.500005960464477539e-01
7.500000000000000000e-01 2.500000000000000000e-01 7.000006437301635742e-01
7.500000000000000000e-01 2.500000000000000000e-01 6.500006914138793945e-01
7.500000000000000000e-01 2.500000000000000000e-01 6.000007390975952148e-01
7.500000000000000000e-01 2.500000000000000000e-01 5.500007867813110352e-01
2.500000000000000000e-01 2.500000000000000000e-01 2.450000047683715820e+00
2.500000000000000000e-01 2.500000000000000000e-01 2.400000095367431641e+00
2.500000000000000000e-01 2.500000000000000000e-01 2.349999904632568359e+00
2.500000000000000000e-01 2.500000000000000000e-01 2.299999952316284180e+00
2.500000000000000000e-01 2.500000000000000000e-01 2.250000000000000000e+00
2.500000000000000000e-01 2.500000000000000000e-01 2.200000047683715820e+00
2.500000000000000000e-01 2.500000000000000000e-01 2.150000095367431641e+00
2.500000000000000000e-01 2.500000000000000000e-01 2.099999904632568359e+00
2.500000000000000000e-01 2.500000000000000000e-01 2.049999952316284180e+00
2.500000000000000000e-01 2.500000000000000000e-01 2.000000000000000000e+00
2.500000000000000000e-01 2.500000000000000000e-01 1.949999928474426270e+00
2.500000000000000000e-01 2.500000000000000000e-01 1.899999856948852539e+00
2.500000000000000000e-01 2.500000000000000000e-01 1.849999904632568359e+00
2.500000000000000000e-01 2.500000000000000000e-01 1.799999952316284180e+00
2.500000000000000000e-01 2.500000000000000000e-01 1.749999880790710449e+00
2.500000000000000000e-01 2.500000000000000000e-01 1.699999809265136719e+00
2.500000000000000000e-01 2.500000000000000000e-01 1.649999856948852539e+00
2.500000000000000000e-01 2.500000000000000000e-01 1.599999904632568359e+00
2.500000000000000000e-01 2.500000000000000000e-01 1.549999833106994629e+00
2.500000000000000000e-01 2.500000000000000000e-01 1.499999880790710449e+00
2.500000000000000000e-01 2.500000000000000000e-01 1.449999928474426270e+00
2.500000000000000000e-01 2.500000000000000000e-01 1.399999976158142090e+00
2.500000000000000000e-01 2.500000000000000000e-01 1.350000023841857910e+00
2.500000000000000000e-01 2.500000000000000000e-01 1.300000071525573730e+00
2.500000000000000000e-01 2.500000000000000000e-01 1.250000119209289551e+00
2.500000000000000000e-01 2.500000000000000000e-01 1.200000166893005371e+00
2.500000000000000000e-01 2.500000000000000000e-01 1.150000214576721191e+00
2.500000000000000000e-01 2.500000000000000000e-01 1.100000262260437012e+00
2.500000000000000000e-01 2.500000000000000000e-01 1.050000309944152832e+00
2.500000000000000000e-01 2.500000000000000000e-01 1.000000357627868652e+00
2.500000000000000000e-01 2.500000000000000000e-01 9.500004053115844727e-01
2.500000000000000000e-01 2.500000000000000000e-01 9.000004529953002930e-01
2.500000000000000000e-01 2.500000000000000000e-01 8.500005006790161133e-01
2.500000000000000000e-01 2.500000000000000000e-01 8.000005483627319336e-01
2.500000000000000000e-01 2.500000000000000000e-01 7.500005960464477539e-01
2.500000000000000000e-01 2.500000000000000000e-01 7.000006437301635742e-01
2.500000000000000000e-01 2.500000000000000000e-01 6.500006914138793945e-01
2.500000000000000000e-01 2.500000000000000000e-01 6.000007390975952148e-01
2.500000000000000000e-01 2.500000000000000000e-01 5.500007867813110352e-01
6.999999880790710449e-01 2.500000000000000000e-01 5.000000000000000000e-01
6.499999761581420898e-01 2.500000000000000000e-01 5.000000000000000000e-01
6.000000238418579102e-01 2.500000000000000000e-01 5.000000000000000000e-01
5.500000119209289551e-01 2.500000000000000000e-01 5.000000000000000000e-01
5.000000000000000000e-01 2.500000000000000000e-01 5.000000000000000000e-01
4.499999880790710449e-01 2.500000000000000000e-01 5.000000000000000000e-01
3.999999761581420898e-01 2.500000000000000000e-01 5.000000000000000000e-01
3.499999642372131348e-01 2.500000000000000000e-01 5.000000000000000000e-01
2.999999523162841797e-01 2.500000000000000000e-01 5.000000000000000000e-01
7.500000000000000000e-01 2.500000000000000000e-01 5.000000000000000000e-01
7.500000000000000000e-01 2.500000000000000000e-01 2.500000000000000000e+00
2.500000000000000000e-01 2.500000000000000000e-01 5.000000000000000000e-01
2.500000000000000000e-01 2.500000000000000000e-01 2.500000000000000000e+00
91 40
40 41
41 42
42 43
43 44
44 45
45 46
46 47
47 48
48 49
49 50
50 51
51 52
52 53
53 54
54 55
55 56
56 57
57 58
58 59
59 60
60 61
61 62
62 63
63 64
64 65
65 66
66 67
67 68
68 69
69 70
70 71
71 72
72 73
73 74
74 75
75 76
76 77
77 78
78 90
90 87
87 86
86 85
85 84
84 83
83 82
82 81
81 80
80 79
79 88
88 39
39 38
38 37
37 36
36 35
35 34
34 33
33 32
32 31
31 30
30 29
29 28
28 27
27 26
26 25
25 24
24 23
23 22
22 21
21 20
20 19
19 18
18 17
17 16
16 15
15 14
14 13
13 12
12 11
11 10
10 9
9 8
8 7
7 6
6 5
5 4
4 3
3 2
2 1
1 89
