Title = "TSurf curve FE data" 
Variables = "CoordinateX" "CoordinateY" "CoordinateZ" 
Zone T= "geom_1d"
Nodes=236, Elements=240, ZONETYPE=FELineSeg
DATAPACKING=POINT
6.999999880790710449e-01 7.500000000000000000e-01 2.500000000000000000e+00
6.499999761581420898e-01 7.500000000000000000e-01 2.500000000000000000e+00
6.000000238418579102e-01 7.500000000000000000e-01 2.500000000000000000e+00
5.500000119209289551e-01 7.500000000000000000e-01 2.500000000000000000e+00
5.000000000000000000e-01 7.500000000000000000e-01 2.500000000000000000e+00
4.499999880790710449e-01 7.500000000000000000e-01 2.500000000000000000e+00
3.999999761581420898e-01 7.500000000000000000e-01 2.500000000000000000e+00
3.499999642372131348e-01 7.500000000000000000e-01 2.500000000000000000e+00
2.999999523162841797e-01 7.500000000000000000e-01 2.500000000000000000e+00
2.500000000000000000e-01 6.999999880790710449e-01 2.500000000000000000e+00
2.500000000000000000e-01 6.499999761581420898e-01 2.500000000000000000e+00
2.500000000000000000e-01 6.000000238418579102e-01 2.500000000000000000e+00
2.500000000000000000e-01 5.500000119209289551e-01 2.500000000000000000e+00
2.500000000000000000e-01 5.000000000000000000e-01 2.500000000000000000e+00
2.500000000000000000e-01 4.499999880790710449e-01 2.500000000000000000e+00
2.500000000000000000e-01 3.999999761581420898e-01 2.500000000000000000e+00
2.500000000000000000e-01 3.499999642372131348e-01 2.500000000000000000e+00
2.500000000000000000e-01 2.999999523162841797e-01 2.500000000000000000e+00
3.000000119209289551e-01 2.500000000000000000e-01 2.500000000000000000e+00
3.499999940395355225e-01 2.500000000000000000e-01 2.500000000000000000e+00
4.000000059604644775e-01 2.500000000000000000e-01 2.500000000000000000e+00
4.499999880790710449e-01 2.500000000000000000e-01 2.500000000000000000e+00
5.000000000000000000e-01 2.500000000000000000e-01 2.500000000000000000e+00
5.500000119209289551e-01 2.500000000000000000e-01 2.500000000000000000e+00
6.000000238418579102e-01 2.500000000000000000e-01 2.500000000000000000e+00
6.500000357627868652e-01 2.500000000000000000e-01 2.500000000000000000e+00
7.000000476837158203e-01 2.500000000000000000e-01 2.500000000000000000e+00
7.500000000000000000e-01 3.000000119209289551e-01 2.500000000000000000e+00
7.500000000000000000e-01 3.499999940395355225e-01 2.500000000000000000e+00
7.500000000000000000e-01 4.000000059604644775e-01 2.500000000000000000e+00
7.500000000000000000e-01 4.499999880790710449e-01 2.500000000000000000e+00
7.500000000000000000e-01 5.000000000000000000e-01 2.500000000000000000e+00
7.500000000000000000e-01 5.500000119209289551e-01 2.500000000000000000e+00
7.500000000000000000e-01 6.000000238418579102e-01 2.500000000000000000e+00
7.500000000000000000e-01 6.500000357627868652e-01 2.500000000000000000e+00
7.500000000000000000e-01 7.000000476837158203e-01 2.500000000000000000e+00
7.500000000000000000e-01 7.500000000000000000e-01 2.450000047683715820e+00
7.500000000000000000e-01 7.500000000000000000e-01 2.400000095367431641e+00
7.500000000000000000e-01 7.500000000000000000e-01 2.349999904632568359e+00
7.500000000000000000e-01 7.500000000000000000e-01 2.299999952316284180e+00
7.500000000000000000e-01 7.500000000000000000e-01 2.250000000000000000e+00
7.500000000000000000e-01 7.500000000000000000e-01 2.200000047683715820e+00
7.500000000000000000e-01 7.500000000000000000e-01 2.150000095367431641e+00
7.500000000000000000e-01 7.500000000000000000e-01 2.099999904632568359e+00
7.500000000000000000e-01 7.500000000000000000e-01 2.049999952316284180e+00
7.500000000000000000e-01 7.500000000000000000e-01 2.000000000000000000e+00
7.500000000000000000e-01 7.500000000000000000e-01 1.949999928474426270e+00
7.500000000000000000e-01 7.500000000000000000e-01 1.899999856948852539e+00
7.500000000000000000e-01 7.500000000000000000e-01 1.849999904632568359e+00
7.500000000000000000e-01 7.500000000000000000e-01 1.799999952316284180e+00
7.500000000000000000e-01 7.500000000000000000e-01 1.749999880790710449e+00
7.500000000000000000e-01 7.500000000000000000e-01 1.699999809265136719e+00
7.500000000000000000e-01 7.500000000000000000e-01 1.649999856948852539e+00
7.500000000000000000e-01 7.500000000000000000e-01 1.599999904632568359e+00
7.500000000000000000e-01 7.500000000000000000e-01 1.549999833106994629e+00
7.500000000000000000e-01 7.500000000000000000e-01 1.499999880790710449e+00
7.500000000000000000e-01 7.500000000000000000e-01 1.449999928474426270e+00
7.500000000000000000e-01 7.500000000000000000e-01 1.399999976158142090e+00
7.500000000000000000e-01 7.500000000000000000e-01 1.350000023841857910e+00
7.500000000000000000e-01 7.500000000000000000e-01 1.300000071525573730e+00
7.500000000000000000e-01 7.500000000000000000e-01 1.250000119209289551e+00
7.500000000000000000e-01 7.500000000000000000e-01 1.200000166893005371e+00
7.500000000000000000e-01 7.500000000000000000e-01 1.150000214576721191e+00
7.500000000000000000e-01 7.500000000000000000e-01 1.100000262260437012e+00
7.500000000000000000e-01 7.500000000000000000e-01 1.050000309944152832e+00
7.500000000000000000e-01 7.500000000000000000e-01 1.000000357627868652e+00
7.500000000000000000e-01 7.500000000000000000e-01 9.500004053115844727e-01
7.500000000000000000e-01 7.500000000000000000e-01 9.000004529953002930e-01
7.500000000000000000e-01 7.500000000000000000e-01 8.500005006790161133e-01
7.500000000000000000e-01 7.500000000000000000e-01 8.000005483627319336e-01
7.500000000000000000e-01 7.500000000000000000e-01 7.500005960464477539e-01
7.500000000000000000e-01 7.500000000000000000e-01 7.000006437301635742e-01
7.500000000000000000e-01 7.500000000000000000e-01 6.500006914138793945e-01
7.500000000000000000e-01 7.500000000000000000e-01 6.000007390975952148e-01
7.500000000000000000e-01 7.500000000000000000e-01 5.500007867813110352e-01
7.500000000000000000e-01 2.500000000000000000e-01 2.450000047683715820e+00
7.500000000000000000e-01 2.500000000000000000e-01 2.400000095367431641e+00
7.500000000000000000e-01 2.500000000000000000e-01 2.349999904632568359e+00
7.500000000000000000e-01 2.500000000000000000e-01 2.299999952316284180e+00
7.500000000000000000e-01 2.500000000000000000e-01 2.250000000000000000e+00
7.500000000000000000e-01 2.500000000000000000e-01 2.200000047683715820e+00
7.500000000000000000e-01 2.500000000000000000e-01 2.150000095367431641e+00
7.500000000000000000e-01 2.500000000000000000e-01 2.099999904632568359e+00
7.500000000000000000e-01 2.500000000000000000e-01 2.049999952316284180e+00
7.500000000000000000e-01 2.500000000000000000e-01 2.000000000000000000e+00
7.500000000000000000e-01 2.500000000000000000e-01 1.949999928474426270e+00
7.500000000000000000e-01 2.500000000000000000e-01 1.899999856948852539e+00
7.500000000000000000e-01 2.500000000000000000e-01 1.849999904632568359e+00
7.500000000000000000e-01 2.500000000000000000e-01 1.799999952316284180e+00
7.500000000000000000e-01 2.500000000000000000e-01 1.749999880790710449e+00
7.500000000000000000e-01 2.500000000000000000e-01 1.699999809265136719e+00
7.500000000000000000e-01 2.500000000000000000e-01 1.649999856948852539e+00
7.500000000000000000e-01 2.500000000000000000e-01 1.599999904632568359e+00
7.500000000000000000e-01 2.500000000000000000e-01 1.549999833106994629e+00
7.500000000000000000e-01 2.500000000000000000e-01 1.499999880790710449e+00
7.500000000000000000e-01 2.500000000000000000e-01 1.449999928474426270e+00
7.500000000000000000e-01 2.500000000000000000e-01 1.399999976158142090e+00
7.500000000000000000e-01 2.500000000000000000e-01 1.350000023841857910e+00
7.500000000000000000e-01 2.500000000000000000e-01 1.300000071525573730e+00
7.500000000000000000e-01 2.500000000000000000e-01 1.250000119209289551e+00
7.500000000000000000e-01 2.500000000000000000e-01 1.200000166893005371e+00
7.500000000000000000e-01 2.500000000000000000e-01 1.150000214576721191e+00
7.500000000000000000e-01 2.500000000000000000e-01 1.100000262260437012e+00
7.500000000000000000e-01 2.500000000000000000e-01 1.050000309944152832e+00
7.500000000000000000e-01 2.500000000000000000e-01 1.000000357627868652e+00
7.500000000000000000e-01 2.500000000000000000e-01 9.500004053115844727e-01
7.500000000000000000e-01 2.500000000000000000e-01 9.000004529953002930e-01
7.500000000000000000e-01 2.500000000000000000e-01 8.500005006790161133e-01
7.500000000000000000e-01 2.500000000000000000e-01 8.000005483627319336e-01
7.500000000000000000e-01 2.500000000000000000e-01 7.500005960464477539e-01
7.500000000000000000e-01 2.500000000000000000e-01 7.000006437301635742e-01
7.500000000000000000e-01 2.500000000000000000e-01 6.500006914138793945e-01
7.500000000000000000e-01 2.500000000000000000e-01 6.000007390975952148e-01
7.500000000000000000e-01 2.500000000000000000e-01 5.500007867813110352e-01
2.500000000000000000e-01 2.500000000000000000e-01 2.450000047683715820e+00
2.500000000000000000e-01 2.500000000000000000e-01 2.400000095367431641e+00
2.500000000000000000e-01 2.500000000000000000e-01 2.349999904632568359e+00
2.500000000000000000e-01 2.500000000000000000e-01 2.299999952316284180e+00
2.500000000000000000e-01 2.500000000000000000e-01 2.250000000000000000e+00
2.500000000000000000e-01 2.500000000000000000e-01 2.200000047683715820e+00
2.500000000000000000e-01 2.500000000000000000e-01 2.150000095367431641e+00
2.500000000000000000e-01 2.500000000000000000e-01 2.099999904632568359e+00
2.500000000000000000e-01 2.500000000000000000e-01 2.049999952316284180e+00
2.500000000000000000e-01 2.500000000000000000e-01 2.000000000000000000e+00
2.500000000000000000e-01 2.500000000000000000e-01 1.949999928474426270e+00
2.500000000000000000e-01 2.500000000000000000e-01 1.899999856948852539e+00
2.500000000000000000e-01 2.500000000000000000e-01 1.849999904632568359e+00
2.500000000000000000e-01 2.500000000000000000e-01 1.799999952316284180e+00
2.500000000000000000e-01 2.500000000000000000e-01 1.749999880790710449e+00
2.500000000000000000e-01 2.500000000000000000e-01 1.699999809265136719e+00
2.500000000000000000e-01 2.500000000000000000e-01 1.649999856948852539e+00
2.500000000000000000e-01 2.500000000000000000e-01 1.599999904632568359e+00
2.500000000000000000e-01 2.500000000000000000e-01 1.549999833106994629e+00
2.500000000000000000e-01 2.500000000000000000e-01 1.499999880790710449e+00
2.500000000000000000e-01 2.500000000000000000e-01 1.449999928474426270e+00
2.500000000000000000e-01 2.500000000000000000e-01 1.399999976158142090e+00
2.500000000000000000e-01 2.500000000000000000e-01 1.350000023841857910e+00
2.500000000000000000e-01 2.500000000000000000e-01 1.300000071525573730e+00
2.500000000000000000e-01 2.500000000000000000e-01 1.250000119209289551e+00
2.500000000000000000e-01 2.500000000000000000e-01 1.200000166893005371e+00
2.500000000000000000e-01 2.500000000000000000e-01 1.150000214576721191e+00
2.500000000000000000e-01 2.500000000000000000e-01 1.100000262260437012e+00
2.500000000000000000e-01 2.500000000000000000e-01 1.050000309944152832e+00
2.500000000000000000e-01 2.500000000000000000e-01 1.000000357627868652e+00
2.500000000000000000e-01 2.500000000000000000e-01 9.500004053115844727e-01
2.500000000000000000e-01 2.500000000000000000e-01 9.000004529953002930e-01
2.500000000000000000e-01 2.500000000000000000e-01 8.500005006790161133e-01
2.500000000000000000e-01 2.500000000000000000e-01 8.000005483627319336e-01
2.500000000000000000e-01 2.500000000000000000e-01 7.500005960464477539e-01
2.500000000000000000e-01 2.500000000000000000e-01 7.000006437301635742e-01
2.500000000000000000e-01 2.500000000000000000e-01 6.500006914138793945e-01
2.500000000000000000e-01 2.500000000000000000e-01 6.000007390975952148e-01
2.500000000000000000e-01 2.500000000000000000e-01 5.500007867813110352e-01
2.500000000000000000e-01 7.500000000000000000e-01 2.450000047683715820e+00
2.500000000000000000e-01 7.500000000000000000e-01 2.400000095367431641e+00
2.500000000000000000e-01 7.500000000000000000e-01 2.349999904632568359e+00
2.500000000000000000e-01 7.500000000000000000e-01 2.299999952316284180e+00
2.500000000000000000e-01 7.500000000000000000e-01 2.250000000000000000e+00
2.500000000000000000e-01 7.500000000000000000e-01 2.200000047683715820e+00
2.500000000000000000e-01 7.500000000000000000e-01 2.150000095367431641e+00
2.500000000000000000e-01 7.500000000000000000e-01 2.099999904632568359e+00
2.500000000000000000e-01 7.500000000000000000e-01 2.049999952316284180e+00
2.500000000000000000e-01 7.500000000000000000e-01 2.000000000000000000e+00
2.500000000000000000e-01 7.500000000000000000e-01 1.949999928474426270e+00
2.500000000000000000e-01 7.500000000000000000e-01 1.899999856948852539e+00
2.500000000000000000e-01 7.500000000000000000e-01 1.849999904632568359e+00
2.500000000000000000e-01 7.500000000000000000e-01 1.799999952316284180e+00
2.500000000000000000e-01 7.500000000000000000e-01 1.749999880790710449e+00
2.500000000000000000e-01 7.500000000000000000e-01 1.699999809265136719e+00
2.500000000000000000e-01 7.500000000000000000e-01 1.649999856948852539e+00
2.500000000000000000e-01 7.500000000000000000e-01 1.599999904632568359e+00
2.500000000000000000e-01 7.500000000000000000e-01 1.549999833106994629e+00
2.500000000000000000e-01 7.500000000000000000e-01 1.499999880790710449e+00
2.500000000000000000e-01 7.500000000000000000e-01 1.449999928474426270e+00
2.500000000000000000e-01 7.500000000000000000e-01 1.399999976158142090e+00
2.500000000000000000e-01 7.500000000000000000e-01 1.350000023841857910e+00
2.500000000000000000e-01 7.500000000000000000e-01 1.300000071525573730e+00
2.500000000000000000e-01 7.500000000000000000e-01 1.250000119209289551e+00
2.500000000000000000e-01 7.500000000000000000e-01 1.200000166893005371e+00
2.500000000000000000e-01 7.500000000000000000e-01 1.150000214576721191e+00
2.500000000000000000e-01 7.500000000000000000e-01 1.100000262260437012e+00
2.500000000000000000e-01 7.500000000000000000e-01 1.050000309944152832e+00
2.500000000000000000e-01 7.500000000000000000e-01 1.000000357627868652e+00
2.500000000000000000e-01 7.500000000000000000e-01 9.500004053115844727e-01
2.500000000000000000e-01 7.500000000000000000e-01 9.000004529953002930e-01
2.500000000000000000e-01 7.500000000000000000e-01 8.500005006790161133e-01
2.500000000000000000e-01 7.500000000000000000e-01 8.000005483627319336e-01
2.500000000000000000e-01 7.500000000000000000e-01 7.500005960464477539e-01
2.500000000000000000e-01 7.500000000000000000e-01 7.000006437301635742e-01
2.500000000000000000e-01 7.500000000000000000e-01 6.500006914138793945e-01
2.500000000000000000e-01 7.500000000000000000e-01 6.000007390975952148e-01
2.500000000000000000e-01 7.500000000000000000e-01 5.500007867813110352e-01
7.500000000000000000e-01 6.999999880790710449e-01 5.000000000000000000e-01
7.500000000000000000e-01 6.499999761581420898e-01 5.000000000000000000e-01
7.500000000000000000e-01 6.000000238418579102e-01 5.000000000000000000e-01
7.500000000000000000e-01 5.500000119209289551e-01 5.000000000000000000e-01
7.500000000000000000e-01 5.000000000000000000e-01 5.000000000000000000e-01
7.500000000000000000e-01 4.499999880790710449e-01 5.000000000000000000e-01
7.500000000000000000e-01 3.999999761581420898e-01 5.000000000000000000e-01
7.500000000000000000e-01 3.499999642372131348e-01 5.000000000000000000e-01
7.500000000000000000e-01 2.999999523162841797e-01 5.000000000000000000e-01
6.999999880790710449e-01 2.500000000000000000e-01 5.000000000000000000e-01
6.499999761581420898e-01 2.500000000000000000e-01 5.000000000000000000e-01
6.000000238418579102e-01 2.500000000000000000e-01 5.000000000000000000e-01
5.500000119209289551e-01 2.500000000000000000e-01 5.000000000000000000e-01
5.000000000000000000e-01 2.500000000000000000e-01 5.000000000000000000e-01
4.499999880790710449e-01 2.500000000000000000e-01 5.000000000000000000e-01
3.999999761581420898e-01 2.500000000000000000e-01 5.000000000000000000e-01
3.499999642372131348e-01 2.500000000000000000e-01 5.000000000000000000e-01
2.999999523162841797e-01 2.500000000000000000e-01 5.000000000000000000e-01
2.500000000000000000e-01 3.000000119209289551e-01 5.000000000000000000e-01
2.500000000000000000e-01 3.499999940395355225e-01 5.000000000000000000e-01
2.500000000000000000e-01 4.000000059604644775e-01 5.000000000000000000e-01
2.500000000000000000e-01 4.499999880790710449e-01 5.000000000000000000e-01
2.500000000000000000e-01 5.000000000000000000e-01 5.000000000000000000e-01
2.500000000000000000e-01 5.500000119209289551e-01 5.000000000000000000e-01
2.500000000000000000e-01 6.000000238418579102e-01 5.000000000000000000e-01
2.500000000000000000e-01 6.500000357627868652e-01 5.000000000000000000e-01
2.500000000000000000e-01 7.000000476837158203e-01 5.000000000000000000e-01
3.000000119209289551e-01 7.500000000000000000e-01 5.000000000000000000e-01
3.499999940395355225e-01 7.500000000000000000e-01 5.000000000000000000e-01
4.000000059604644775e-01 7.500000000000000000e-01 5.000000000000000000e-01
4.499999880790710449e-01 7.500000000000000000e-01 5.000000000000000000e-01
5.000000000000000000e-01 7.500000000000000000e-01 5.000000000000000000e-01
5.500000119209289551e-01 7.500000000000000000e-01 5.000000000000000000e-01
6.000000238418579102e-01 7.500000000000000000e-01 5.000000000000000000e-01
6.500000357627868652e-01 7.500000000000000000e-01 5.000000000000000000e-01
7.000000476837158203e-01 7.500000000000000000e-01 5.000000000000000000e-01
7.500000000000000000e-01 2.500000000000000000e-01 5.000000000000000000e-01
7.500000000000000000e-01 2.500000000000000000e-01 2.500000000000000000e+00
7.500000000000000000e-01 7.500000000000000000e-01 2.500000000000000000e+00
7.500000000000000000e-01 7.500000000000000000e-01 5.000000000000000000e-01
2.500000000000000000e-01 7.500000000000000000e-01 2.500000000000000000e+00
2.500000000000000000e-01 7.500000000000000000e-01 5.000000000000000000e-01
2.500000000000000000e-01 2.500000000000000000e-01 5.000000000000000000e-01
2.500000000000000000e-01 2.500000000000000000e-01 2.500000000000000000e+00
228 232
227 228
226 227
225 226
224 225
223 224
222 223
221 222
220 221
234 220
219 234
218 219
217 218
216 217
215 216
214 215
213 214
212 213
211 212
235 211
210 235
209 210
208 209
207 208
206 207
205 206
204 205
203 204
202 203
229 202
201 229
200 201
199 200
198 199
197 198
196 197
195 196
194 195
193 194
232 193
192 234
191 192
190 191
189 190
188 189
187 188
186 187
185 186
184 185
183 184
182 183
181 182
180 181
179 180
178 179
177 178
176 177
175 176
174 175
173 174
172 173
171 172
170 171
169 170
168 169
167 168
166 167
165 166
164 165
163 164
162 163
161 162
160 161
159 160
158 159
157 158
156 157
155 156
154 155
233 154
153 235
152 153
151 152
150 151
149 150
148 149
147 148
146 147
145 146
144 145
143 144
142 143
141 142
140 141
139 140
138 139
137 138
136 137
135 136
134 135
133 134
132 133
131 132
130 131
129 130
128 129
127 128
126 127
125 126
124 125
123 124
122 123
121 122
120 121
119 120
118 119
117 118
116 117
115 116
236 115
114 229
113 114
112 113
111 112
110 111
109 110
108 109
107 108
106 107
105 106
104 105
103 104
102 103
101 102
100 101
99 100
98 99
97 98
96 97
95 96
94 95
93 94
92 93
91 92
90 91
89 90
88 89
87 88
86 87
85 86
84 85
83 84
82 83
81 82
80 81
79 80
78 79
77 78
76 77
230 76
75 232
74 75
73 74
72 73
71 72
70 71
69 70
68 69
67 68
66 67
65 66
64 65
63 64
62 63
61 62
60 61
59 60
58 59
57 58
56 57
55 56
54 55
53 54
52 53
51 52
50 51
49 50
48 49
47 48
46 47
45 46
44 45
43 44
42 43
41 42
40 41
39 40
38 39
37 38
231 37
36 231
35 36
34 35
33 34
32 33
31 32
30 31
29 30
28 29
230 28
27 230
26 27
25 26
24 25
23 24
22 23
21 22
20 21
19 20
236 19
18 236
17 18
16 17
15 16
14 15
13 14
12 13
11 12
10 11
233 10
9 233
8 9
7 8
6 7
5 6
4 5
3 4
2 3
1 2
231 1
