Title = "TSurf curve FE data" 
Variables = "CoordinateX" "CoordinateY" "CoordinateZ" 
Zone T= "curve_te_low"
Nodes=325, Elements=324, ZONETYPE=FELineSeg
DATAPACKING=POINT
3.654207992553710938e+01 9.545446932315826416e-02 2.871487617492675781e+00
3.655844879150390625e+01 1.909089386463165283e-01 2.893571138381958008e+00
3.657482147216796875e+01 2.863634228706359863e-01 2.915654897689819336e+00
3.659119415283203125e+01 3.818178772926330566e-01 2.937738418579101562e+00
3.660756301879882812e+01 4.772723317146301270e-01 2.959822177886962891e+00
3.662393569946289062e+01 5.727268457412719727e-01 2.981905698776245117e+00
3.664030838012695312e+01 6.681813001632690430e-01 3.003989458084106445e+00
3.665667724609375000e+01 7.636357545852661133e-01 3.026072978973388672e+00
3.667304992675781250e+01 8.590902090072631836e-01 3.048156738281250000e+00
3.668942260742187500e+01 9.545446634292602539e-01 3.070240497589111328e+00
3.670579528808593750e+01 1.049999117851257324e+00 3.092324018478393555e+00
3.672216415405273438e+01 1.145453691482543945e+00 3.114407777786254883e+00
3.673853683471679688e+01 1.240908145904541016e+00 3.136491298675537109e+00
3.675490951538085938e+01 1.336362600326538086e+00 3.158575057983398438e+00
3.677127838134765625e+01 1.431817054748535156e+00 3.180658817291259766e+00
3.678765106201171875e+01 1.527271509170532227e+00 3.202742338180541992e+00
3.680402374267578125e+01 1.622725963592529297e+00 3.224825859069824219e+00
3.682039260864257812e+01 1.718180418014526367e+00 3.246909618377685547e+00
3.683676528930664062e+01 1.813634872436523438e+00 3.268993377685546875e+00
3.685313796997070312e+01 1.909089326858520508e+00 3.291076898574829102e+00
3.686950683593750000e+01 2.004543781280517578e+00 3.313160657882690430e+00
3.688587951660156250e+01 2.099998235702514648e+00 3.335244178771972656e+00
3.690225219726562500e+01 2.195452928543090820e+00 3.357327938079833984e+00
3.691862487792968750e+01 2.290907621383666992e+00 3.379411697387695312e+00
3.693499374389648438e+01 2.386362075805664062e+00 3.401495456695556641e+00
3.695136642456054688e+01 2.481816768646240234e+00 3.423578977584838867e+00
3.696773910522460938e+01 2.577271223068237305e+00 3.445662736892700195e+00
3.698410797119140625e+01 2.672725915908813477e+00 3.467746257781982422e+00
3.700048065185546875e+01 2.768180608749389648e+00 3.489830017089843750e+00
3.701685333251953125e+01 2.863635063171386719e+00 3.511913776397705078e+00
3.703322219848632812e+01 2.959089756011962891e+00 3.533997535705566406e+00
3.706360626220703125e+01 3.151592731475830078e+00 3.575092077255249023e+00
3.707761764526367188e+01 3.248642444610595703e+00 3.594103336334228516e+00
3.709162521362304688e+01 3.345692157745361328e+00 3.613114833831787109e+00
3.710563659667968750e+01 3.442741870880126953e+00 3.632126092910766602e+00
3.712001419067382812e+01 3.539896726608276367e+00 3.650304317474365234e+00
3.713446807861328125e+01 3.637073993682861328e+00 3.668305635452270508e+00
3.714894485473632812e+01 3.734258890151977539e+00 3.686243295669555664e+00
3.716395568847656250e+01 3.831612586975097656e+00 3.702774524688720703e+00
3.717896652221679688e+01 3.928966522216796875e+00 3.719305753707885742e+00
3.719414138793945312e+01 4.026368618011474609e+00 3.735376119613647461e+00
3.720977783203125000e+01 4.123904705047607422e+00 3.750159502029418945e+00
3.722553253173828125e+01 4.221469402313232422e+00 3.764606714248657227e+00
3.724180984497070312e+01 4.319165229797363281e+00 3.777529478073120117e+00
3.725814437866210938e+01 4.416868209838867188e+00 3.790313482284545898e+00
3.727499771118164062e+01 4.514641761779785156e+00 3.801828622817993164e+00
3.729185485839843750e+01 4.612415313720703125e+00 3.813343524932861328e+00
3.730870819091796875e+01 4.710188865661621094e+00 3.824858665466308594e+00
3.732556533813476562e+01 4.807962417602539062e+00 3.836373805999755859e+00
3.734242248535156250e+01 4.905735969543457031e+00 3.847888946533203125e+00
3.735927581787109375e+01 5.003509521484375000e+00 3.859404087066650391e+00
3.737613296508789062e+01 5.101283073425292969e+00 3.870919227600097656e+00
3.739316177368164062e+01 5.199024200439453125e+00 3.882453918457031250e+00
3.741030883789062500e+01 5.296742916107177734e+00 3.894002676010131836e+00
3.742745971679687500e+01 5.394461154937744141e+00 3.905551671981811523e+00
3.744461059570312500e+01 5.492179870605468750e+00 3.917100429534912109e+00
3.746175765991210938e+01 5.589898109436035156e+00 3.928649187088012695e+00
3.747890853881835938e+01 5.687616825103759766e+00 3.940197944641113281e+00
3.749605941772460938e+01 5.785335063934326172e+00 3.951746702194213867e+00
3.751321792602539062e+01 5.883045673370361328e+00 3.963347434997558594e+00
3.753050994873046875e+01 5.980647087097167969e+00 3.975646972656250000e+00
3.754780197143554688e+01 6.078248977661132812e+00 3.987946748733520508e+00
3.756509780883789062e+01 6.175850391387939453e+00 4.000246524810791016e+00
3.758238983154296875e+01 6.273451805114746094e+00 4.012546062469482422e+00
3.759968185424804688e+01 6.371053695678710938e+00 4.024845600128173828e+00
3.761697387695312500e+01 6.468655109405517578e+00 4.037145614624023438e+00
3.763426589965820312e+01 6.566256523132324219e+00 4.049445152282714844e+00
3.765158843994140625e+01 6.663855075836181641e+00 4.061732292175292969e+00
3.766892623901367188e+01 6.761451244354248047e+00 4.074008464813232422e+00
3.768626785278320312e+01 6.859046936035156250e+00 4.086285114288330078e+00
3.770360946655273438e+01 6.956643104553222656e+00 4.098561286926269531e+00
3.772095108032226562e+01 7.054238796234130859e+00 4.110837936401367188e+00
3.773829269409179688e+01 7.151834487915039062e+00 4.123114109039306641e+00
3.775563430786132812e+01 7.249430179595947266e+00 4.135390281677246094e+00
3.777297210693359375e+01 7.347028255462646484e+00 4.147651672363281250e+00
3.779021453857421875e+01 7.444751262664794922e+00 4.159022808074951172e+00
3.780745315551757812e+01 7.542474269866943359e+00 4.170394420623779297e+00
3.782469177246093750e+01 7.640197277069091797e+00 4.181765556335449219e+00
3.784193420410156250e+01 7.737920761108398438e+00 4.193137168884277344e+00
3.785917282104492188e+01 7.835643768310546875e+00 4.204508304595947266e+00
3.787641525268554688e+01 7.933366775512695312e+00 4.215879917144775391e+00
3.789365386962890625e+01 8.031089782714843750e+00 4.227251052856445312e+00
3.791088104248046875e+01 8.128865242004394531e+00 4.238184928894042969e+00
3.792808914184570312e+01 8.226690292358398438e+00 4.248687744140625000e+00
3.794529724121093750e+01 8.324516296386718750e+00 4.259191036224365234e+00
3.796250534057617188e+01 8.422342300415039062e+00 4.269693851470947266e+00
3.797971343994140625e+01 8.520168304443359375e+00 4.280197143554687500e+00
3.799692153930664062e+01 8.617994308471679688e+00 4.290699958801269531e+00
3.801412963867187500e+01 8.715820312500000000e+00 4.301203250885009766e+00
3.803134155273437500e+01 8.813645362854003906e+00 4.311706066131591797e+00
3.804861831665039062e+01 8.911539077758789062e+00 4.321437835693359375e+00
3.806589889526367188e+01 9.009432792663574219e+00 4.331162929534912109e+00
3.808317947387695312e+01 9.107325553894042969e+00 4.340888500213623047e+00
3.810046005249023438e+01 9.205219268798828125e+00 4.350613594055175781e+00
3.811774063110351562e+01 9.303112983703613281e+00 4.360338687896728516e+00
3.813502120971679688e+01 9.401006698608398438e+00 4.370063781738281250e+00
3.815229797363281250e+01 9.498900413513183594e+00 4.379789352416992188e+00
3.816959381103515625e+01 9.596837997436523438e+00 4.389018058776855469e+00
3.818690490722656250e+01 9.694821357727050781e+00 4.397732257843017578e+00
3.820421218872070312e+01 9.792805671691894531e+00 4.406445980072021484e+00
3.822152328491210938e+01 9.890789031982421875e+00 4.415159702301025391e+00
3.823883056640625000e+01 9.988772392272949219e+00 4.423873424530029297e+00
3.825614166259765625e+01 1.008675670623779297e+01 4.432587146759033203e+00
3.827344894409179688e+01 1.018474006652832031e+01 4.441301345825195312e+00
3.829075622558593750e+01 1.028272438049316406e+01 4.450015068054199219e+00
3.830806350708007812e+01 1.038076972961425781e+01 4.458006858825683594e+00
3.832536697387695312e+01 1.047882175445556641e+01 4.465925216674804688e+00
3.834267425537109375e+01 1.057689571380615234e+01 4.473564147949218750e+00
3.835998153686523438e+01 1.067496967315673828e+01 4.481203556060791016e+00
3.837728500366210938e+01 1.077306270599365234e+01 4.488592147827148438e+00
3.844034194946289062e+01 1.095969772338867188e+01 4.502954959869384766e+00
3.848609542846679688e+01 1.104823112487792969e+01 4.509993076324462891e+00
3.853184509277343750e+01 1.113676452636718750e+01 4.517035484313964844e+00
3.857758331298828125e+01 1.122527313232421875e+01 4.524462223052978516e+00
3.862332153320312500e+01 1.131378078460693359e+01 4.531888484954833984e+00
3.866905975341796875e+01 1.140228939056396484e+01 4.539314746856689453e+00
3.871479797363281250e+01 1.149079608917236328e+01 4.546762466430664062e+00
3.876050949096679688e+01 1.157925415039062500e+01 4.554917335510253906e+00
3.880622100830078125e+01 1.166771125793457031e+01 4.563071727752685547e+00
3.885193252563476562e+01 1.175616645812988281e+01 4.571260929107666016e+00
3.889760971069335938e+01 1.184455871582031250e+01 4.580267429351806641e+00
3.894328689575195312e+01 1.193295192718505859e+01 4.589273929595947266e+00
3.898896789550781250e+01 1.202134418487548828e+01 4.598280429840087891e+00
3.903464508056640625e+01 1.210973644256591797e+01 4.607286930084228516e+00
3.908032226562500000e+01 1.219812965393066406e+01 4.616293430328369141e+00
3.912600326538085938e+01 1.228652191162109375e+01 4.625299930572509766e+00
3.917168045043945312e+01 1.237491416931152344e+01 4.634306430816650391e+00
3.921735763549804688e+01 1.246330642700195312e+01 4.643312931060791016e+00
3.926303863525390625e+01 1.255169963836669922e+01 4.652319431304931641e+00
3.930871582031250000e+01 1.264009189605712891e+01 4.661326408386230469e+00
3.935439300537109375e+01 1.272848415374755859e+01 4.670332908630371094e+00
3.940007019042968750e+01 1.281687736511230469e+01 4.679339408874511719e+00
3.944575119018554688e+01 1.290526962280273438e+01 4.688345909118652344e+00
3.949142837524414062e+01 1.299366188049316406e+01 4.697352409362792969e+00
3.953710556030273438e+01 1.308205509185791016e+01 4.706358909606933594e+00
3.958278656005859375e+01 1.317044734954833984e+01 4.715365409851074219e+00
3.962847900390625000e+01 1.325887298583984375e+01 4.723948001861572266e+00
3.967419433593750000e+01 1.334734344482421875e+01 4.731945514678955078e+00
3.971990585327148438e+01 1.343581485748291016e+01 4.739943504333496094e+00
3.976562118530273438e+01 1.352428627014160156e+01 4.747941493988037109e+00
3.981133651733398438e+01 1.361275672912597656e+01 4.755939006805419922e+00
3.985704803466796875e+01 1.370122814178466797e+01 4.763936996459960938e+00
3.990276336669921875e+01 1.378969860076904297e+01 4.771934509277343750e+00
3.994847869873046875e+01 1.387817001342773438e+01 4.779932498931884766e+00
3.999419021606445312e+01 1.396664047241210938e+01 4.787930488586425781e+00
4.003990554809570312e+01 1.405511188507080078e+01 4.795928001403808594e+00
4.008562088012695312e+01 1.414358329772949219e+01 4.803925991058349609e+00
4.013133239746093750e+01 1.423205375671386719e+01 4.811923503875732422e+00
4.017704772949218750e+01 1.432052516937255859e+01 4.819921493530273438e+00
4.022276306152343750e+01 1.440899562835693359e+01 4.827919483184814453e+00
4.026847457885742188e+01 1.449746704101562500e+01 4.835916996002197266e+00
4.031418991088867188e+01 1.458593750000000000e+01 4.843914985656738281e+00
4.035990524291992188e+01 1.467440891265869141e+01 4.851912498474121094e+00
4.040562057495117188e+01 1.476287364959716797e+01 4.859957218170166016e+00
4.045133590698242188e+01 1.485133838653564453e+01 4.868012428283691406e+00
4.049705505371093750e+01 1.493980216979980469e+01 4.876068115234375000e+00
4.054277038574218750e+01 1.502826595306396484e+01 4.884123325347900391e+00
4.058848953247070312e+01 1.511673069000244141e+01 4.892178535461425781e+00
4.063420486450195312e+01 1.520519447326660156e+01 4.900233745574951172e+00
4.067992401123046875e+01 1.529365825653076172e+01 4.908288955688476562e+00
4.072563934326171875e+01 1.538212299346923828e+01 4.916344642639160156e+00
4.077135467529296875e+01 1.547058677673339844e+01 4.924399852752685547e+00
4.081707382202148438e+01 1.555905055999755859e+01 4.932455062866210938e+00
4.086278915405273438e+01 1.564751434326171875e+01 4.940510272979736328e+00
4.090850830078125000e+01 1.573597908020019531e+01 4.948565483093261719e+00
4.095422363281250000e+01 1.582444286346435547e+01 4.956620693206787109e+00
4.099993896484375000e+01 1.591290664672851562e+01 4.964676380157470703e+00
4.104565811157226562e+01 1.600137138366699219e+01 4.972731590270996094e+00
4.109137344360351562e+01 1.608983612060546875e+01 4.980786800384521484e+00
4.113708496093750000e+01 1.617828941345214844e+01 4.988990306854248047e+00
4.118276977539062500e+01 1.626670265197753906e+01 4.997755527496337891e+00
4.122845077514648438e+01 1.635511589050292969e+01 5.006520748138427734e+00
4.127413558959960938e+01 1.644352912902832031e+01 5.015286445617675781e+00
4.131982040405273438e+01 1.653194427490234375e+01 5.024051666259765625e+00
4.136550521850585938e+01 1.662035751342773438e+01 5.032816886901855469e+00
4.141118621826171875e+01 1.670877075195312500e+01 5.041582584381103516e+00
4.145687103271484375e+01 1.679718399047851562e+01 5.050347805023193359e+00
4.150255584716796875e+01 1.688559913635253906e+01 5.059113025665283203e+00
4.154824066162109375e+01 1.697401237487792969e+01 5.067878246307373047e+00
4.159392166137695312e+01 1.706242561340332031e+01 5.076643943786621094e+00
4.163960647583007812e+01 1.715083885192871094e+01 5.085409164428710938e+00
4.168529129028320312e+01 1.723925399780273438e+01 5.094174385070800781e+00
4.173097229003906250e+01 1.732766723632812500e+01 5.102940082550048828e+00
4.177665710449218750e+01 1.741608047485351562e+01 5.111705303192138672e+00
4.182234191894531250e+01 1.750449371337890625e+01 5.120470523834228516e+00
4.186802673339843750e+01 1.759290695190429688e+01 5.129236221313476562e+00
4.191369247436523438e+01 1.768128776550292969e+01 5.138414382934570312e+00
4.195934677124023438e+01 1.776964378356933594e+01 5.147876262664794922e+00
4.200500106811523438e+01 1.785800170898437500e+01 5.157338619232177734e+00
4.205065917968750000e+01 1.794635772705078125e+01 5.166800498962402344e+00
4.209631347656250000e+01 1.803471565246582031e+01 5.176262378692626953e+00
4.214196777343750000e+01 1.812307167053222656e+01 5.185724735260009766e+00
4.218762207031250000e+01 1.821142768859863281e+01 5.195186614990234375e+00
4.223327636718750000e+01 1.829978561401367188e+01 5.204648971557617188e+00
4.227893447875976562e+01 1.838814163208007812e+01 5.214110851287841797e+00
4.232458877563476562e+01 1.847649765014648438e+01 5.223572731018066406e+00
4.237024307250976562e+01 1.856485557556152344e+01 5.233035087585449219e+00
4.241589736938476562e+01 1.865321159362792969e+01 5.242496967315673828e+00
4.246155166625976562e+01 1.874156761169433594e+01 5.251958847045898438e+00
4.250720977783203125e+01 1.882992553710937500e+01 5.261421203613281250e+00
4.255286407470703125e+01 1.891828155517578125e+01 5.270883083343505859e+00
4.259851837158203125e+01 1.900663757324218750e+01 5.280345439910888672e+00
4.264417266845703125e+01 1.909499549865722656e+01 5.289807319641113281e+00
4.268979644775390625e+01 1.918327713012695312e+01 5.300086975097656250e+00
4.273541641235351562e+01 1.927155685424804688e+01 5.310394763946533203e+00
4.278104019165039062e+01 1.935983467102050781e+01 5.320703029632568359e+00
4.282666015625000000e+01 1.944811439514160156e+01 5.331011295318603516e+00
4.287228393554687500e+01 1.953639411926269531e+01 5.341319561004638672e+00
4.291790390014648438e+01 1.962467193603515625e+01 5.351627349853515625e+00
4.296352767944335938e+01 1.971295166015625000e+01 5.361935615539550781e+00
4.300914764404296875e+01 1.980123138427734375e+01 5.372243881225585938e+00
4.305477142333984375e+01 1.988951110839843750e+01 5.382552146911621094e+00
4.310039138793945312e+01 1.997778892517089844e+01 5.392860412597656250e+00
4.314601516723632812e+01 2.006606864929199219e+01 5.403168201446533203e+00
4.319163513183593750e+01 2.015434837341308594e+01 5.413476467132568359e+00
4.323725891113281250e+01 2.024262619018554688e+01 5.423784732818603516e+00
4.328287887573242188e+01 2.033090591430664062e+01 5.434092998504638672e+00
4.332850265502929688e+01 2.041918563842773438e+01 5.444400787353515625e+00
4.337412261962890625e+01 2.050746536254882812e+01 5.454709053039550781e+00
4.341972732543945312e+01 2.059571266174316406e+01 5.465357780456542969e+00
4.346528625488281250e+01 2.068389511108398438e+01 5.476714611053466797e+00
4.351084518432617188e+01 2.077207565307617188e+01 5.488070964813232422e+00
4.355640792846679688e+01 2.086025810241699219e+01 5.499427795410156250e+00
4.360196685791015625e+01 2.094844055175781250e+01 5.510784149169921875e+00
4.364752960205078125e+01 2.103662300109863281e+01 5.522140979766845703e+00
4.369308853149414062e+01 2.112480545043945312e+01 5.533497333526611328e+00
4.373864746093750000e+01 2.121298789978027344e+01 5.544854164123535156e+00
4.378421020507812500e+01 2.130116844177246094e+01 5.556210517883300781e+00
4.382976913452148438e+01 2.138935089111328125e+01 5.567566871643066406e+00
4.387533187866210938e+01 2.147753334045410156e+01 5.578923702239990234e+00
4.392089080810546875e+01 2.156571578979492188e+01 5.590280055999755859e+00
4.396644973754882812e+01 2.165389823913574219e+01 5.601636886596679688e+00
4.401201248168945312e+01 2.174208068847656250e+01 5.612993240356445312e+00
4.405757141113281250e+01 2.183026123046875000e+01 5.624350070953369141e+00
4.410313415527343750e+01 2.191844367980957031e+01 5.635706424713134766e+00
4.414869308471679688e+01 2.200662612915039062e+01 5.647063255310058594e+00
4.419420242309570312e+01 2.209472274780273438e+01 5.659240245819091797e+00
4.423968887329101562e+01 2.218277740478515625e+01 5.671830177307128906e+00
4.428517150878906250e+01 2.227083015441894531e+01 5.684420585632324219e+00
4.433065795898437500e+01 2.235888481140136719e+01 5.697010517120361328e+00
4.437614059448242188e+01 2.244693756103515625e+01 5.709600448608398438e+00
4.442162704467773438e+01 2.253499221801757812e+01 5.722190380096435547e+00
4.446710968017578125e+01 2.262304687500000000e+01 5.734780311584472656e+00
4.451259613037109375e+01 2.271109962463378906e+01 5.747370719909667969e+00
4.455807876586914062e+01 2.279915428161621094e+01 5.759960651397705078e+00
4.460356521606445312e+01 2.288720703125000000e+01 5.772550582885742188e+00
4.464904785156250000e+01 2.297526168823242188e+01 5.785140514373779297e+00
4.469453430175781250e+01 2.306331443786621094e+01 5.797730922698974609e+00
4.474001693725585938e+01 2.315136909484863281e+01 5.810320854187011719e+00
4.478550338745117188e+01 2.323942184448242188e+01 5.822910785675048828e+00
4.483098602294921875e+01 2.332747650146484375e+01 5.835500717163085938e+00
4.487647247314453125e+01 2.341553115844726562e+01 5.848091125488281250e+00
4.492195510864257812e+01 2.350358390808105469e+01 5.860681056976318359e+00
4.496738052368164062e+01 2.359149932861328125e+01 5.874398708343505859e+00
4.501280593872070312e+01 2.367941284179687500e+01 5.888137340545654297e+00
4.505822753906250000e+01 2.376732635498046875e+01 5.901876449584960938e+00
4.510365295410156250e+01 2.385523986816406250e+01 5.915615558624267578e+00
4.514907455444335938e+01 2.394315338134765625e+01 5.929354667663574219e+00
4.519449996948242188e+01 2.403106689453125000e+01 5.943093299865722656e+00
4.523992538452148438e+01 2.411897850036621094e+01 5.956832408905029297e+00
4.528534698486328125e+01 2.420689201354980469e+01 5.970571517944335938e+00
4.533077239990234375e+01 2.429480552673339844e+01 5.984310150146484375e+00
4.537619400024414062e+01 2.438271903991699219e+01 5.998049259185791016e+00
4.542161941528320312e+01 2.447063255310058594e+01 6.011788368225097656e+00
4.546704483032226562e+01 2.455854606628417969e+01 6.025527477264404297e+00
4.551246643066406250e+01 2.464645957946777344e+01 6.039266109466552734e+00
4.555789184570312500e+01 2.473437118530273438e+01 6.053005218505859375e+00
4.560331344604492188e+01 2.482228469848632812e+01 6.066744327545166016e+00
4.564873886108398438e+01 2.491019821166992188e+01 6.080482959747314453e+00
4.569414520263671875e+01 2.499807739257812500e+01 6.094489574432373047e+00
4.573950958251953125e+01 2.508586311340332031e+01 6.109215736389160156e+00
4.578487014770507812e+01 2.517365074157714844e+01 6.123942375183105469e+00
4.583023071289062500e+01 2.526143646240234375e+01 6.138668537139892578e+00
4.587559127807617188e+01 2.534922409057617188e+01 6.153394699096679688e+00
4.592095565795898438e+01 2.543700981140136719e+01 6.168120861053466797e+00
4.596631622314453125e+01 2.552479553222656250e+01 6.182847499847412109e+00
4.601167678833007812e+01 2.561258316040039062e+01 6.197573661804199219e+00
4.605704116821289062e+01 2.570036888122558594e+01 6.212299823760986328e+00
4.610240173339843750e+01 2.578815650939941406e+01 6.227026462554931641e+00
4.614776229858398438e+01 2.587594223022460938e+01 6.241752624511718750e+00
4.619312286376953125e+01 2.596372985839843750e+01 6.256478786468505859e+00
4.623848724365234375e+01 2.605151557922363281e+01 6.271204948425292969e+00
4.628384780883789062e+01 2.613930130004882812e+01 6.285931587219238281e+00
4.632920837402343750e+01 2.622708892822265625e+01 6.300657749176025391e+00
4.637457275390625000e+01 2.631487464904785156e+01 6.315383911132812500e+00
4.641993331909179688e+01 2.640266227722167969e+01 6.330110549926757812e+00
4.646524429321289062e+01 2.649035072326660156e+01 6.345536231994628906e+00
4.651051712036132812e+01 2.657795524597167969e+01 6.361566543579101562e+00
4.655578613281250000e+01 2.666556167602539062e+01 6.377597332000732422e+00
4.660105514526367188e+01 2.675316619873046875e+01 6.393627643585205078e+00
4.664632797241210938e+01 2.684077072143554688e+01 6.409658432006835938e+00
4.669159698486328125e+01 2.692837715148925781e+01 6.425688743591308594e+00
4.673686599731445312e+01 2.701598167419433594e+01 6.441719532012939453e+00
4.678213500976562500e+01 2.710358619689941406e+01 6.457749843597412109e+00
4.682740783691406250e+01 2.719119262695312500e+01 6.473780632019042969e+00
4.687267684936523438e+01 2.727879714965820312e+01 6.489811420440673828e+00
4.691794586181640625e+01 2.736640167236328125e+01 6.505841732025146484e+00
4.696321868896484375e+01 2.745400619506835938e+01 6.521872520446777344e+00
4.700848770141601562e+01 2.754161262512207031e+01 6.537902832031250000e+00
4.705375671386718750e+01 2.762921714782714844e+01 6.553933620452880859e+00
4.709902572631835938e+01 2.771682167053222656e+01 6.569963932037353516e+00
4.714429855346679688e+01 2.780442810058593750e+01 6.585994720458984375e+00
4.718956756591796875e+01 2.789203262329101562e+01 6.602025032043457031e+00
4.723483657836914062e+01 2.797964286804199219e+01 6.618028163909912109e+00
4.728010559082031250e+01 2.806725692749023438e+01 6.634023189544677734e+00
4.732537460327148438e+01 2.815486907958984375e+01 6.650017738342285156e+00
4.737063980102539062e+01 2.824248123168945312e+01 6.666012763977050781e+00
4.741590881347656250e+01 2.833009338378906250e+01 6.682007312774658203e+00
4.746117782592773438e+01 2.841771125793457031e+01 6.697975635528564453e+00
4.750644683837890625e+01 2.850533103942871094e+01 6.713933944702148438e+00
4.755171203613281250e+01 2.859294891357421875e+01 6.729892730712890625e+00
4.759698104858398438e+01 2.868056869506835938e+01 6.745851516723632812e+00
4.764225006103515625e+01 2.876818847656250000e+01 6.761810302734375000e+00
4.768751907348632812e+01 2.885580825805664062e+01 6.777769088745117188e+00
4.773278808593750000e+01 2.894342613220214844e+01 6.793726921081542969e+00
4.777805328369140625e+01 2.903104972839355469e+01 6.809661865234375000e+00
4.782332229614257812e+01 2.911867332458496094e+01 6.825596809387207031e+00
4.786859130859375000e+01 2.920629882812500000e+01 6.841531753540039062e+00
4.791386032104492188e+01 2.929392242431640625e+01 6.857466697692871094e+00
4.797042083740234375e+01 2.940350341796875000e+01 6.878240108489990234e+00
3.652570724487304688e+01 0.000000000000000000e+00 2.849403858184814453e+00
3.704959487915039062e+01 3.054543018341064453e+00 3.556080818176269531e+00
3.839459228515625000e+01 1.087116432189941406e+01 4.495917320251464844e+00
4.795911788940429688e+01 2.938152885437011719e+01 6.873398303985595703e+00
4.798056030273437500e+01 2.942384338378906250e+01 6.887701511383056641e+00
325 320
320 324
324 319
319 318
318 317
317 316
316 315
315 314
314 313
313 312
312 311
311 310
310 309
309 308
308 307
307 306
306 305
305 304
304 303
303 302
302 301
301 300
300 299
299 298
298 297
297 296
296 295
295 294
294 293
293 292
292 291
291 290
290 289
289 288
288 287
287 286
286 285
285 284
284 283
283 282
282 281
281 280
280 279
279 278
278 277
277 276
276 275
275 274
274 273
273 272
272 271
271 270
270 269
269 268
268 267
267 266
266 265
265 264
264 263
263 262
262 261
261 260
260 259
259 258
258 257
257 256
256 255
255 254
254 253
253 252
252 251
251 250
250 249
249 248
248 247
247 246
246 245
245 244
244 243
243 242
242 241
241 240
240 239
239 238
238 237
237 236
236 235
235 234
234 233
233 232
232 231
231 230
230 229
229 228
228 227
227 226
226 225
225 224
224 223
223 222
222 221
221 220
220 219
219 218
218 217
217 216
216 215
215 214
214 213
213 212
212 211
211 210
210 209
209 208
208 207
207 206
206 205
205 204
204 203
203 202
202 201
201 200
200 199
199 198
198 197
197 196
196 195
195 194
194 193
193 192
192 191
191 190
190 189
189 188
188 187
187 186
186 185
185 184
184 183
183 182
182 181
181 180
180 179
179 178
178 177
177 176
176 175
175 174
174 173
173 172
172 171
171 170
170 169
169 168
168 167
167 166
166 165
165 164
164 163
163 162
162 161
161 160
160 159
159 158
158 157
157 156
156 155
155 154
154 153
153 152
152 151
151 150
150 149
149 148
148 147
147 146
146 145
145 144
144 143
143 142
142 141
141 140
140 139
139 138
138 137
137 136
136 135
135 134
134 133
133 132
132 131
131 130
130 129
129 128
128 127
127 126
126 125
125 124
124 123
123 122
122 121
121 120
120 119
119 118
118 117
117 116
116 115
115 114
114 113
113 112
112 111
111 323
323 110
110 109
109 108
108 107
107 106
106 105
105 104
104 103
103 102
102 101
101 100
100 99
99 98
98 97
97 96
96 95
95 94
94 93
93 92
92 91
91 90
90 89
89 88
88 87
87 86
86 85
85 84
84 83
83 82
82 81
81 80
80 79
79 78
78 77
77 76
76 75
75 74
74 73
73 72
72 71
71 70
70 69
69 68
68 67
67 66
66 65
65 64
64 63
63 62
62 61
61 60
60 59
59 58
58 57
57 56
56 55
55 54
54 53
53 52
52 51
51 50
50 49
49 48
48 47
47 46
46 45
45 44
44 43
43 42
42 41
41 40
40 39
39 38
38 37
37 36
36 35
35 34
34 33
33 32
32 322
322 31
31 30
30 29
29 28
28 27
27 26
26 25
25 24
24 23
23 22
22 21
21 20
20 19
19 18
18 17
17 16
16 15
15 14
14 13
13 12
12 11
11 10
10 9
9 8
8 7
7 6
6 5
5 4
4 3
3 2
2 1
1 321
