Title = "TSurf curve FE data" 
Variables = "CoordinateX" "CoordinateY" "CoordinateZ" 
Zone T= "curve_te_upp"
Nodes=326, Elements=325, ZONETYPE=FELineSeg
DATAPACKING=POINT
3.703430175781250000e+01 2.959355831146240234e+00 3.547370910644531250e+00
3.701795959472656250e+01 2.863892793655395508e+00 3.525399446487426758e+00
3.700161743164062500e+01 2.768429517745971680e+00 3.503428220748901367e+00
3.698527526855468750e+01 2.672966480255126953e+00 3.481456756591796875e+00
3.696893692016601562e+01 2.577503442764282227e+00 3.459485530853271484e+00
3.695259475708007812e+01 2.482040405273437500e+00 3.437514305114746094e+00
3.693625259399414062e+01 2.386577129364013672e+00 3.415542840957641602e+00
3.691991043090820312e+01 2.291114091873168945e+00 3.393571615219116211e+00
3.690356826782226562e+01 2.195651054382324219e+00 3.371600389480590820e+00
3.688722610473632812e+01 2.100188016891479492e+00 3.349628925323486328e+00
3.687088394165039062e+01 2.004724979400634766e+00 3.327657699584960938e+00
3.685454559326171875e+01 1.909261822700500488e+00 3.305686473846435547e+00
3.683820343017578125e+01 1.813798785209655762e+00 3.283715009689331055e+00
3.682186126708984375e+01 1.718335747718811035e+00 3.261743783950805664e+00
3.680551910400390625e+01 1.622872710227966309e+00 3.239772319793701172e+00
3.678917694091796875e+01 1.527409672737121582e+00 3.217801094055175781e+00
3.677283477783203125e+01 1.431946754455566406e+00 3.195829868316650391e+00
3.675649261474609375e+01 1.336483597755432129e+00 3.173858642578125000e+00
3.674015045166015625e+01 1.241020560264587402e+00 3.151887178421020508e+00
3.672381210327148438e+01 1.145557403564453125e+00 3.129915952682495117e+00
3.670746994018554688e+01 1.050094366073608398e+00 3.107944488525390625e+00
3.669112777709960938e+01 9.546313285827636719e-01 3.085973262786865234e+00
3.667478561401367188e+01 8.591682910919189453e-01 3.064002037048339844e+00
3.665844345092773438e+01 7.637052536010742188e-01 3.042030811309814453e+00
3.664210128784179688e+01 6.682422161102294922e-01 3.020059347152709961e+00
3.662575912475585938e+01 5.727791786193847656e-01 2.998088121414184570e+00
3.660941696166992188e+01 4.773161411285400391e-01 2.976116657257080078e+00
3.659307861328125000e+01 3.818531036376953125e-01 2.954145431518554688e+00
3.657673645019531250e+01 2.863900661468505859e-01 2.932174205780029297e+00
3.656039428710937500e+01 1.909267902374267578e-01 2.910202980041503906e+00
3.654405212402343750e+01 9.546399116516113281e-02 2.888231515884399414e+00
3.837746810913085938e+01 1.077307033538818359e+01 4.501688480377197266e+00
3.836016845703125000e+01 1.067498207092285156e+01 4.494303226470947266e+00
3.834286880493164062e+01 1.057691192626953125e+01 4.486666679382324219e+00
3.832557296752929688e+01 1.047884178161621094e+01 4.479030132293701172e+00
3.830827331542968750e+01 1.038079357147216797e+01 4.471115112304687500e+00
3.829097747802734375e+01 1.028275108337402344e+01 4.463127136230468750e+00
3.827367782592773438e+01 1.018477058410644531e+01 4.454418182373046875e+00
3.825637435913085938e+01 1.008679103851318359e+01 4.445709228515625000e+00
3.823907470703125000e+01 9.988810539245605469e+00 4.437000274658203125e+00
3.822177505493164062e+01 9.890830039978027344e+00 4.428291320800781250e+00
3.820447540283203125e+01 9.792849540710449219e+00 4.419582366943359375e+00
3.818717575073242188e+01 9.694869041442871094e+00 4.410873413085937500e+00
3.816987609863281250e+01 9.596889495849609375e+00 4.402163982391357422e+00
3.815258789062500000e+01 9.498954772949218750e+00 4.392937660217285156e+00
3.813531875610351562e+01 9.401063919067382812e+00 4.383215904235839844e+00
3.811804962158203125e+01 9.303174018859863281e+00 4.373493671417236328e+00
3.810078048706054688e+01 9.205283164978027344e+00 4.363771915435791016e+00
3.808351135253906250e+01 9.107393264770507812e+00 4.354049682617187500e+00
3.806623840332031250e+01 9.009502410888671875e+00 4.344327926635742188e+00
3.804896926879882812e+01 8.911612510681152344e+00 4.334605693817138672e+00
3.803170013427734375e+01 8.813722610473632812e+00 4.324877738952636719e+00
3.801450347900390625e+01 8.715900421142578125e+00 4.314373970031738281e+00
3.799730682373046875e+01 8.618077278137207031e+00 4.303870201110839844e+00
3.798011016845703125e+01 8.520255088806152344e+00 4.293365955352783203e+00
3.796291351318359375e+01 8.422432899475097656e+00 4.282862186431884766e+00
3.794571685791015625e+01 8.324609756469726562e+00 4.272358417510986328e+00
3.792852020263671875e+01 8.226787567138671875e+00 4.261854171752929688e+00
3.791132354736328125e+01 8.128965377807617188e+00 4.251350402832031250e+00
3.789411163330078125e+01 8.031193733215332031e+00 4.240413665771484375e+00
3.787688064575195312e+01 7.933474540710449219e+00 4.229039669036865234e+00
3.785965347290039062e+01 7.835754871368408203e+00 4.217666149139404297e+00
3.784242630004882812e+01 7.738035678863525391e+00 4.206292152404785156e+00
3.782519531250000000e+01 7.640316009521484375e+00 4.194918155670166016e+00
3.780796813964843750e+01 7.542596340179443359e+00 4.183544635772705078e+00
3.779073715209960938e+01 7.444876670837402344e+00 4.172170639038085938e+00
3.777350997924804688e+01 7.347157478332519531e+00 4.160796642303466797e+00
3.775618362426757812e+01 7.249562740325927734e+00 4.148536205291748047e+00
3.773885345458984375e+01 7.151970386505126953e+00 4.136258602142333984e+00
3.772152709960937500e+01 7.054377555847167969e+00 4.123981475830078125e+00
3.770419692993164062e+01 6.956785202026367188e+00 4.111704349517822266e+00
3.768687057495117188e+01 6.859192848205566406e+00 4.099426746368408203e+00
3.766954040527343750e+01 6.761600494384765625e+00 4.087149620056152344e+00
3.765221405029296875e+01 6.664008140563964844e+00 4.074872493743896484e+00
3.763490676879882812e+01 6.566412925720214844e+00 4.062585353851318359e+00
3.761762619018554688e+01 6.468814849853515625e+00 4.050287246704101562e+00
3.760034561157226562e+01 6.371216297149658203e+00 4.037988662719726562e+00
3.758306503295898438e+01 6.273617744445800781e+00 4.025690078735351562e+00
3.756578445434570312e+01 6.176019668579101562e+00 4.013391494750976562e+00
3.754850387573242188e+01 6.078421115875244141e+00 4.001093387603759766e+00
3.753122329711914062e+01 5.980823040008544922e+00 3.988794803619384766e+00
3.751394271850585938e+01 5.883224487304687500e+00 3.976496219635009766e+00
3.749679565429687500e+01 5.785518169403076172e+00 3.964895486831665039e+00
3.747965621948242188e+01 5.687802791595458984e+00 3.953347921371459961e+00
3.746251678466796875e+01 5.590087890625000000e+00 3.941800355911254883e+00
3.744537734985351562e+01 5.492372989654541016e+00 3.930252790451049805e+00
3.742823791503906250e+01 5.394658088684082031e+00 3.918704986572265625e+00
3.741109848022460938e+01 5.296943187713623047e+00 3.907157421112060547e+00
3.739395904541015625e+01 5.199228286743164062e+00 3.895609855651855469e+00
3.737694168090820312e+01 5.101490974426269531e+00 3.884077072143554688e+00
3.736009597778320312e+01 5.003720760345458984e+00 3.872565031051635742e+00
3.734324645996093750e+01 4.905951023101806641e+00 3.861053228378295898e+00
3.732640075683593750e+01 4.808181285858154297e+00 3.849541187286376953e+00
3.730955123901367188e+01 4.710411548614501953e+00 3.838029146194458008e+00
3.729270553588867188e+01 4.612641811370849609e+00 3.826517105102539062e+00
3.727585601806640625e+01 4.514872074127197266e+00 3.815005302429199219e+00
3.725901031494140625e+01 4.417102336883544922e+00 3.803493261337280273e+00
3.724268341064453125e+01 4.319401741027832031e+00 3.790721178054809570e+00
3.722641372680664062e+01 4.221709251403808594e+00 3.777807474136352539e+00
3.721066284179687500e+01 4.124145507812500000e+00 3.763385057449340820e+00
3.719503784179687500e+01 4.026611804962158203e+00 3.748611688613891602e+00
3.717986297607421875e+01 3.929210662841796875e+00 3.732567310333251953e+00
3.716486358642578125e+01 3.831859350204467773e+00 3.716042280197143555e+00
3.714986419677734375e+01 3.734508275985717773e+00 3.699517488479614258e+00
3.713539886474609375e+01 3.637324571609497070e+00 3.681594371795654297e+00
3.712096405029296875e+01 3.540150403976440430e+00 3.663591861724853516e+00
3.710660171508789062e+01 3.442997694015502930e+00 3.645418882369995117e+00
3.709261322021484375e+01 3.345952033996582031e+00 3.626399517059326172e+00
3.707862472534179688e+01 3.248906612396240234e+00 3.607380151748657227e+00
3.706463241577148438e+01 3.151861190795898438e+00 3.588360786437988281e+00
4.791299438476562500e+01 2.929390525817871094e+01 6.870643138885498047e+00
4.786773681640625000e+01 2.920627975463867188e+01 6.854702472686767578e+00
4.782247924804687500e+01 2.911865615844726562e+01 6.838761806488037109e+00
4.777721786499023438e+01 2.903103065490722656e+01 6.822821140289306641e+00
4.773196029663085938e+01 2.894340705871582031e+01 6.806880474090576172e+00
4.768670272827148438e+01 2.885578727722167969e+01 6.790918350219726562e+00
4.764144134521484375e+01 2.876816749572753906e+01 6.774955272674560547e+00
4.759618377685546875e+01 2.868054962158203125e+01 6.758991718292236328e+00
4.755092239379882812e+01 2.859292984008789062e+01 6.743028640747070312e+00
4.750566101074218750e+01 2.850531005859375000e+01 6.727065563201904297e+00
4.746040344238281250e+01 2.841769027709960938e+01 6.711102485656738281e+00
4.741514205932617188e+01 2.833007240295410156e+01 6.695130348205566406e+00
4.736988067626953125e+01 2.824246025085449219e+01 6.679133415222167969e+00
4.732462310791015625e+01 2.815484809875488281e+01 6.663136005401611328e+00
4.727936172485351562e+01 2.806723403930664062e+01 6.647138595581054688e+00
4.723410034179687500e+01 2.797962188720703125e+01 6.631141185760498047e+00
4.718884277343750000e+01 2.789200973510742188e+01 6.615136146545410156e+00
4.714357757568359375e+01 2.780440521240234375e+01 6.599104881286621094e+00
4.709831619262695312e+01 2.771680068969726562e+01 6.583073616027832031e+00
4.705305099487304688e+01 2.762919425964355469e+01 6.567042350769042969e+00
4.700778961181640625e+01 2.754158973693847656e+01 6.551011562347412109e+00
4.696252822875976562e+01 2.745398330688476562e+01 6.534980297088623047e+00
4.691726303100585938e+01 2.736637878417968750e+01 6.518949031829833984e+00
4.687200164794921875e+01 2.727877235412597656e+01 6.502917766571044922e+00
4.682674026489257812e+01 2.719116783142089844e+01 6.486886501312255859e+00
4.678147506713867188e+01 2.710356140136718750e+01 6.470855236053466797e+00
4.673621368408203125e+01 2.701595687866210938e+01 6.454824447631835938e+00
4.669094848632812500e+01 2.692835044860839844e+01 6.438793182373046875e+00
4.664568710327148438e+01 2.684074592590332031e+01 6.422761917114257812e+00
4.660042572021484375e+01 2.675313949584960938e+01 6.406730651855468750e+00
4.655516052246093750e+01 2.666553497314453125e+01 6.390699386596679688e+00
4.650989913940429688e+01 2.657792854309082031e+01 6.374668121337890625e+00
4.646463775634765625e+01 2.649032402038574219e+01 6.358636856079101562e+00
4.641933059692382812e+01 2.640263366699218750e+01 6.343211174011230469e+00
4.637397384643554688e+01 2.631484794616699219e+01 6.328484535217285156e+00
4.632861709594726562e+01 2.622706222534179688e+01 6.313757896423339844e+00
4.628325653076171875e+01 2.613927841186523438e+01 6.299031257629394531e+00
4.623789978027343750e+01 2.605149269104003906e+01 6.284304618835449219e+00
4.619254302978515625e+01 2.596370697021484375e+01 6.269577980041503906e+00
4.614718627929687500e+01 2.587592124938964844e+01 6.254851341247558594e+00
4.610182952880859375e+01 2.578813552856445312e+01 6.240124702453613281e+00
4.605647277832031250e+01 2.570034980773925781e+01 6.225398063659667969e+00
4.601111602783203125e+01 2.561256408691406250e+01 6.210671424865722656e+00
4.596575927734375000e+01 2.552477836608886719e+01 6.195944786071777344e+00
4.592040252685546875e+01 2.543699264526367188e+01 6.181218147277832031e+00
4.587504577636718750e+01 2.534920692443847656e+01 6.166491508483886719e+00
4.582968902587890625e+01 2.526142120361328125e+01 6.151764392852783203e+00
4.578433227539062500e+01 2.517363739013671875e+01 6.137037754058837891e+00
4.573897171020507812e+01 2.508585166931152344e+01 6.122311115264892578e+00
4.569361495971679688e+01 2.499806594848632812e+01 6.107584476470947266e+00
4.564821243286132812e+01 2.491018676757812500e+01 6.093577384948730469e+00
4.560279464721679688e+01 2.482227325439453125e+01 6.079837799072265625e+00
4.555737304687500000e+01 2.473436164855957031e+01 6.066097736358642578e+00
4.551195144653320312e+01 2.464644813537597656e+01 6.052358150482177734e+00
4.546653366088867188e+01 2.455853462219238281e+01 6.038618087768554688e+00
4.542111206054687500e+01 2.447062301635742188e+01 6.024878501892089844e+00
4.537569427490234375e+01 2.438270950317382812e+01 6.011138439178466797e+00
4.533027267456054688e+01 2.429479598999023438e+01 5.997398376464843750e+00
4.528485488891601562e+01 2.420688438415527344e+01 5.983658790588378906e+00
4.523943328857421875e+01 2.411897087097167969e+01 5.969918727874755859e+00
4.519401168823242188e+01 2.403105735778808594e+01 5.956179141998291016e+00
4.514859390258789062e+01 2.394314575195312500e+01 5.942439079284667969e+00
4.510317230224609375e+01 2.385523223876953125e+01 5.928699493408203125e+00
4.505775451660156250e+01 2.376731872558593750e+01 5.914959430694580078e+00
4.501233291625976562e+01 2.367940711975097656e+01 5.901219844818115234e+00
4.496691131591796875e+01 2.359149360656738281e+01 5.887479782104492188e+00
4.492149353027343750e+01 2.350357818603515625e+01 5.873761653900146484e+00
4.487601089477539062e+01 2.341552543640136719e+01 5.861171722412109375e+00
4.483052825927734375e+01 2.332747077941894531e+01 5.848581790924072266e+00
4.478504943847656250e+01 2.323941802978515625e+01 5.835991859436035156e+00
4.473956680297851562e+01 2.315136528015136719e+01 5.823401927947998047e+00
4.469408416748046875e+01 2.306331253051757812e+01 5.810811996459960938e+00
4.464860534667968750e+01 2.297525787353515625e+01 5.798222064971923828e+00
4.460312271118164062e+01 2.288720512390136719e+01 5.785632133483886719e+00
4.455764007568359375e+01 2.279915237426757812e+01 5.773042201995849609e+00
4.451216125488281250e+01 2.271109771728515625e+01 5.760452270507812500e+00
4.446667861938476562e+01 2.262304496765136719e+01 5.747862339019775391e+00
4.442119598388671875e+01 2.253499221801757812e+01 5.735272407531738281e+00
4.437571716308593750e+01 2.244693946838378906e+01 5.722682476043701172e+00
4.433023452758789062e+01 2.235888481140136719e+01 5.710092544555664062e+00
4.428475189208984375e+01 2.227083206176757812e+01 5.697503089904785156e+00
4.423927307128906250e+01 2.218277931213378906e+01 5.684913158416748047e+00
4.419379043579101562e+01 2.209472656250000000e+01 5.672323226928710938e+00
4.414828491210937500e+01 2.200662994384765625e+01 5.660146713256835938e+00
4.410272598266601562e+01 2.191844749450683594e+01 5.648791313171386719e+00
4.405716705322265625e+01 2.183026695251464844e+01 5.637435913085937500e+00
4.401160812377929688e+01 2.174208450317382812e+01 5.626080989837646484e+00
4.396605300903320312e+01 2.165390396118164062e+01 5.614725589752197266e+00
4.392049407958984375e+01 2.156572151184082031e+01 5.603370666503906250e+00
4.387493515014648438e+01 2.147754096984863281e+01 5.592015266418457031e+00
4.382937622070312500e+01 2.138936042785644531e+01 5.580660343170166016e+00
4.378382110595703125e+01 2.130117797851562500e+01 5.569304943084716797e+00
4.373826217651367188e+01 2.121299743652343750e+01 5.557950019836425781e+00
4.369270324707031250e+01 2.112481498718261719e+01 5.546594619750976562e+00
4.364714431762695312e+01 2.103663444519042969e+01 5.535239696502685547e+00
4.360158538818359375e+01 2.094845199584960938e+01 5.523884296417236328e+00
4.355603027343750000e+01 2.086027145385742188e+01 5.512529373168945312e+00
4.351047134399414062e+01 2.077208900451660156e+01 5.501173973083496094e+00
4.346491241455078125e+01 2.068390846252441406e+01 5.489819049835205078e+00
4.341935348510742188e+01 2.059572601318359375e+01 5.478463649749755859e+00
4.337375640869140625e+01 2.050748062133789062e+01 5.467814445495605469e+00
4.332813644409179688e+01 2.041920089721679688e+01 5.457505226135253906e+00
4.328251647949218750e+01 2.033092308044433594e+01 5.447196006774902344e+00
4.323690032958984375e+01 2.024264526367187500e+01 5.436886787414550781e+00
4.319128036499023438e+01 2.015436553955078125e+01 5.426577568054199219e+00
4.314566040039062500e+01 2.006608772277832031e+01 5.416268348693847656e+00
4.310004425048828125e+01 1.997780799865722656e+01 5.405959129333496094e+00
4.305442428588867188e+01 1.988953018188476562e+01 5.395649909973144531e+00
4.300880432128906250e+01 1.980125236511230469e+01 5.385340690612792969e+00
4.296318817138671875e+01 1.971297264099121094e+01 5.375031471252441406e+00
4.291756820678710938e+01 1.962469482421875000e+01 5.364722251892089844e+00
4.287194824218750000e+01 1.953641700744628906e+01 5.354413032531738281e+00
4.282633209228515625e+01 1.944813728332519531e+01 5.344103813171386719e+00
4.278071212768554688e+01 1.935985946655273438e+01 5.333794593811035156e+00
4.273509216308593750e+01 1.927158164978027344e+01 5.323485374450683594e+00
4.268947601318359375e+01 1.918330192565917969e+01 5.313176155090332031e+00
4.264385604858398438e+01 1.909502220153808594e+01 5.302895545959472656e+00
4.259820175170898438e+01 1.900666427612304688e+01 5.293434619903564453e+00
4.255255126953125000e+01 1.891830825805664062e+01 5.283973693847656250e+00
4.250690078735351562e+01 1.882995223999023438e+01 5.274512290954589844e+00
4.246124649047851562e+01 1.874159622192382812e+01 5.265051364898681641e+00
4.241559600830078125e+01 1.865324020385742188e+01 5.255590438842773438e+00
4.236994552612304688e+01 1.856488227844238281e+01 5.246129512786865234e+00
4.232429122924804688e+01 1.847652626037597656e+01 5.236668109893798828e+00
4.227864074707031250e+01 1.838817024230957031e+01 5.227207183837890625e+00
4.223299026489257812e+01 1.829981422424316406e+01 5.217746257781982422e+00
4.218733978271484375e+01 1.821145820617675781e+01 5.208285331726074219e+00
4.214168548583984375e+01 1.812310028076171875e+01 5.198824405670166016e+00
4.209603500366210938e+01 1.803474426269531250e+01 5.189363002777099609e+00
4.205038452148437500e+01 1.794638824462890625e+01 5.179902076721191406e+00
4.200473022460937500e+01 1.785803222656250000e+01 5.170441150665283203e+00
4.195907974243164062e+01 1.776967620849609375e+01 5.160980224609375000e+00
4.191342926025390625e+01 1.768131828308105469e+01 5.151519298553466797e+00
4.186776351928710938e+01 1.759293937683105469e+01 5.142341613769531250e+00
4.182208633422851562e+01 1.750452613830566406e+01 5.133577346801757812e+00
4.177640533447265625e+01 1.741611289978027344e+01 5.124813556671142578e+00
4.173072433471679688e+01 1.732769775390625000e+01 5.116049289703369141e+00
4.168504714965820312e+01 1.723928451538085938e+01 5.107285022735595703e+00
4.163936614990234375e+01 1.715087127685546875e+01 5.098521232604980469e+00
4.159368515014648438e+01 1.706245803833007812e+01 5.089756965637207031e+00
4.154800415039062500e+01 1.697404289245605469e+01 5.080992698669433594e+00
4.150232696533203125e+01 1.688562965393066406e+01 5.072228431701660156e+00
4.145664596557617188e+01 1.679721641540527344e+01 5.063464641571044922e+00
4.141096496582031250e+01 1.670880317687988281e+01 5.054700374603271484e+00
4.136528778076171875e+01 1.662038803100585938e+01 5.045936107635498047e+00
4.131960678100585938e+01 1.653197479248046875e+01 5.037172317504882812e+00
4.127392578125000000e+01 1.644356155395507812e+01 5.028408050537109375e+00
4.122824478149414062e+01 1.635514831542968750e+01 5.019643783569335938e+00
4.118256759643554688e+01 1.626673507690429688e+01 5.010879993438720703e+00
4.113688659667968750e+01 1.617831993103027344e+01 5.002115726470947266e+00
4.109117889404296875e+01 1.608986663818359375e+01 4.993911266326904297e+00
4.104546737670898438e+01 1.600140380859375000e+01 4.985855102539062500e+00
4.099975204467773438e+01 1.591294002532958984e+01 4.977798461914062500e+00
4.095404052734375000e+01 1.582447624206542969e+01 4.969742298126220703e+00
4.090832901000976562e+01 1.573601245880126953e+01 4.961685657501220703e+00
4.086261367797851562e+01 1.564754867553710938e+01 4.953629493713378906e+00
4.081690216064453125e+01 1.555908489227294922e+01 4.945572853088378906e+00
4.077118682861328125e+01 1.547062110900878906e+01 4.937516212463378906e+00
4.072547531127929688e+01 1.538215827941894531e+01 4.929460048675537109e+00
4.067975997924804688e+01 1.529369449615478516e+01 4.921403408050537109e+00
4.063404846191406250e+01 1.520523166656494141e+01 4.913347244262695312e+00
4.058833312988281250e+01 1.511676883697509766e+01 4.905291080474853516e+00
4.054262161254882812e+01 1.502830505371093750e+01 4.897234439849853516e+00
4.049691009521484375e+01 1.493984222412109375e+01 4.889178276062011719e+00
4.045119476318359375e+01 1.485137939453125000e+01 4.881122112274169922e+00
4.040548324584960938e+01 1.476291656494140625e+01 4.873065471649169922e+00
4.035977172851562500e+01 1.467445278167724609e+01 4.865020275115966797e+00
4.031406402587890625e+01 1.458598232269287109e+01 4.857023715972900391e+00
4.026835632324218750e+01 1.449751091003417969e+01 4.849026679992675781e+00
4.022264480590820312e+01 1.440904045104980469e+01 4.841030120849609375e+00
4.017693710327148438e+01 1.432056999206542969e+01 4.833033084869384766e+00
4.013122940063476562e+01 1.423209953308105469e+01 4.825036525726318359e+00
4.008552169799804688e+01 1.414362907409667969e+01 4.817039489746093750e+00
4.003981399536132812e+01 1.405515766143798828e+01 4.809042930603027344e+00
3.999410629272460938e+01 1.396668720245361328e+01 4.801046371459960938e+00
3.994839859008789062e+01 1.387821674346923828e+01 4.793049335479736328e+00
3.990269088745117188e+01 1.378974628448486328e+01 4.785052776336669922e+00
3.985698318481445312e+01 1.370127582550048828e+01 4.777055740356445312e+00
3.981127166748046875e+01 1.361280441284179688e+01 4.769059181213378906e+00
3.976556396484375000e+01 1.352433395385742188e+01 4.761062145233154297e+00
3.971985626220703125e+01 1.343586349487304688e+01 4.753065586090087891e+00
3.967414855957031250e+01 1.334739303588867188e+01 4.745069026947021484e+00
3.962844085693359375e+01 1.325892257690429688e+01 4.737071990966796875e+00
3.958275604248046875e+01 1.317049598693847656e+01 4.728490829467773438e+00
3.953708648681640625e+01 1.308210182189941406e+01 4.719484329223632812e+00
3.949141693115234375e+01 1.299370861053466797e+01 4.710477828979492188e+00
3.944574737548828125e+01 1.290531444549560547e+01 4.701471805572509766e+00
3.940007781982421875e+01 1.281692123413085938e+01 4.692465305328369141e+00
3.935440826416015625e+01 1.272852706909179688e+01 4.683459281921386719e+00
3.930873870849609375e+01 1.264013385772705078e+01 4.674452781677246094e+00
3.926306915283203125e+01 1.255173969268798828e+01 4.665446758270263672e+00
3.921739959716796875e+01 1.246334648132324219e+01 4.656440258026123047e+00
3.917173004150390625e+01 1.237495231628417969e+01 4.647433757781982422e+00
3.912606048583984375e+01 1.228655910491943359e+01 4.638427734375000000e+00
3.908039093017578125e+01 1.219816493988037109e+01 4.629421234130859375e+00
3.903472137451171875e+01 1.210977172851562500e+01 4.620415210723876953e+00
3.898905563354492188e+01 1.202137756347656250e+01 4.611408710479736328e+00
3.894338607788085938e+01 1.193298339843750000e+01 4.602402210235595703e+00
3.889771652221679688e+01 1.184459018707275391e+01 4.593396186828613281e+00
3.885204696655273438e+01 1.175619697570800781e+01 4.584389686584472656e+00
3.880634307861328125e+01 1.166774082183837891e+01 4.576199054718017578e+00
3.876063919067382812e+01 1.157928276062011719e+01 4.568042755126953125e+00
3.871493530273437500e+01 1.149082469940185547e+01 4.559886455535888672e+00
3.866920471191406250e+01 1.140231800079345703e+01 4.552434921264648438e+00
3.862347412109375000e+01 1.131380939483642578e+01 4.545004844665527344e+00
3.857774353027343750e+01 1.122530078887939453e+01 4.537574768066406250e+00
3.853201293945312500e+01 1.113679313659667969e+01 4.530144691467285156e+00
3.848627090454101562e+01 1.104825973510742188e+01 4.523097515106201172e+00
3.844052505493164062e+01 1.095972633361816406e+01 4.516055107116699219e+00
4.797319793701171875e+01 2.941024017333984375e+01 6.890227794647216797e+00
4.796567916870117188e+01 2.939585304260253906e+01 6.888870239257812500e+00
3.705064392089843750e+01 3.054818868637084961e+00 3.569342136383056641e+00
3.652770996093750000e+01 0.000000000000000000e+00 2.866260051727294922e+00
3.839476776123046875e+01 1.087116432189941406e+01 4.509010314941406250e+00
4.795825195312500000e+01 2.938152885437011719e+01 6.886583805084228516e+00
4.798056030273437500e+01 2.942384338378906250e+01 6.887701511383056641e+00
323 31
31 30
30 29
29 28
28 27
27 26
26 25
25 24
24 23
23 22
22 21
21 20
20 19
19 18
18 17
17 16
16 15
15 14
14 13
13 12
12 11
11 10
10 9
9 8
8 7
7 6
6 5
5 4
4 3
3 2
2 1
1 322
322 110
110 109
109 108
108 107
107 106
106 105
105 104
104 103
103 102
102 101
101 100
100 99
99 98
98 97
97 96
96 95
95 94
94 93
93 92
92 91
91 90
90 89
89 88
88 87
87 86
86 85
85 84
84 83
83 82
82 81
81 80
80 79
79 78
78 77
77 76
76 75
75 74
74 73
73 72
72 71
71 70
70 69
69 68
68 67
67 66
66 65
65 64
64 63
63 62
62 61
61 60
60 59
59 58
58 57
57 56
56 55
55 54
54 53
53 52
52 51
51 50
50 49
49 48
48 47
47 46
46 45
45 44
44 43
43 42
42 41
41 40
40 39
39 38
38 37
37 36
36 35
35 34
34 33
33 32
32 324
324 319
319 318
318 317
317 316
316 315
315 314
314 313
313 312
312 311
311 310
310 309
309 308
308 307
307 306
306 305
305 304
304 303
303 302
302 301
301 300
300 299
299 298
298 297
297 296
296 295
295 294
294 293
293 292
292 291
291 290
290 289
289 288
288 287
287 286
286 285
285 284
284 283
283 282
282 281
281 280
280 279
279 278
278 277
277 276
276 275
275 274
274 273
273 272
272 271
271 270
270 269
269 268
268 267
267 266
266 265
265 264
264 263
263 262
262 261
261 260
260 259
259 258
258 257
257 256
256 255
255 254
254 253
253 252
252 251
251 250
250 249
249 248
248 247
247 246
246 245
245 244
244 243
243 242
242 241
241 240
240 239
239 238
238 237
237 236
236 235
235 234
234 233
233 232
232 231
231 230
230 229
229 228
228 227
227 226
226 225
225 224
224 223
223 222
222 221
221 220
220 219
219 218
218 217
217 216
216 215
215 214
214 213
213 212
212 211
211 210
210 209
209 208
208 207
207 206
206 205
205 204
204 203
203 202
202 201
201 200
200 199
199 198
198 197
197 196
196 195
195 194
194 193
193 192
192 191
191 190
190 189
189 188
188 187
187 186
186 185
185 184
184 183
183 182
182 181
181 180
180 179
179 178
178 177
177 176
176 175
175 174
174 173
173 172
172 171
171 170
170 169
169 168
168 167
167 166
166 165
165 164
164 163
163 162
162 161
161 160
160 159
159 158
158 157
157 156
156 155
155 154
154 153
153 152
152 151
151 150
150 149
149 148
148 147
147 146
146 145
145 144
144 143
143 142
142 141
141 140
140 139
139 138
138 137
137 136
136 135
135 134
134 133
133 132
132 131
131 130
130 129
129 128
128 127
127 126
126 125
125 124
124 123
123 122
122 121
121 120
120 119
119 118
118 117
117 116
116 115
115 114
114 113
113 112
112 111
111 325
325 321
321 320
320 326
