Title = "TSurf curve FE data" 
Variables = "CoordinateX" "CoordinateY" "CoordinateZ" 
Zone T= "intersection"
Nodes=264, Elements=264, ZONETYPE=FELineSeg
DATAPACKING=POINT
3.704958070609570342e+01 3.054460389213834670e+00 3.556161701870499847e+00
3.704853378160650124e+01 3.054472691603715262e+00 3.556141696936702346e+00
3.704738653494967338e+01 3.054486172877491246e+00 3.556119775018114826e+00
3.704612937420675678e+01 3.054500945749615060e+00 3.556095752829605328e+00
3.704475179468833801e+01 3.054517133660493045e+00 3.556069429644550972e+00
3.704324229294348214e+01 3.054534871786961148e+00 3.556040585651708330e+00
3.704158827284302191e+01 3.054554308145892794e+00 3.556008980160624056e+00
3.703977594304176790e+01 3.054575604799126154e+00 3.555974349642313292e+00
3.703779020507046482e+01 3.054598939168486904e+00 3.555936405590888860e+00
3.703561453125257685e+01 3.054624505470390439e+00 3.555894832190762411e+00
3.703323083253478387e+01 3.054652514747965952e+00 3.555849233163043799e+00
3.703061931686472263e+01 3.054683191006206666e+00 3.555798945018539658e+00
3.702775831574221144e+01 3.054716797853857635e+00 3.555743852705856245e+00
3.702462412332859998e+01 3.054752515764440624e+00 3.555683281081039926e+00
3.702119073244723779e+01 3.054774819499792127e+00 3.555613576755724203e+00
3.701742986969185978e+01 3.054799540495015009e+00 3.555537281876291811e+00
3.701331053159958628e+01 3.054826617829106361e+00 3.555453714773864959e+00
3.700879882648145269e+01 3.054856274279746930e+00 3.555362187903460036e+00
3.700385771389134248e+01 3.054888753322104744e+00 3.555261949842715374e+00
3.699844672320678995e+01 3.054924320978667840e+00 3.555152179582873107e+00
3.699252164930044984e+01 3.054963267819661432e+00 3.555031980355005228e+00
3.698603422389901851e+01 3.055005911123282569e+00 3.554900372963025745e+00
3.697893176124281212e+01 3.055052597204858778e+00 3.554756288595348312e+00
3.697115677670409895e+01 3.055103703923752523e+00 3.554598561087977338e+00
3.696264655722986703e+01 3.055134949933941080e+00 3.554421000647639328e+00
3.695333278113592712e+01 3.055167000531648469e+00 3.554225969743929792e+00
3.694314053670857589e+01 3.055202293291360949e+00 3.554036288527103959e+00
3.693198887654631335e+01 3.055241044073531143e+00 3.553843469592993021e+00
3.691978983163046735e+01 3.055283431274928851e+00 3.553632202012609209e+00
3.690644745085109690e+01 3.055329791148600815e+00 3.553401133718060212e+00
3.689185752778735861e+01 3.055352255341492462e+00 3.553142833132768352e+00
3.687590686715065402e+01 3.055356098121361885e+00 3.552856312771118574e+00
3.685847268087145068e+01 3.055360296739090931e+00 3.552542533826657856e+00
3.683942367816739960e+01 3.055364678886715257e+00 3.552119791008429672e+00
3.681861592118428206e+01 3.055369274621299702e+00 3.551583701268063109e+00
3.679589266179235807e+01 3.055320513787090242e+00 3.550986989552997741e+00
3.677108565821387032e+01 3.055255773721162527e+00 3.550333188859590372e+00
3.674401563486681255e+01 3.055185503772695377e+00 3.549560156211484685e+00
3.671449403817757684e+01 3.055060091816224066e+00 3.548470111298013485e+00
3.668230451430672900e+01 3.054904013495720605e+00 3.547277507245406358e+00
3.664722429375781587e+01 3.054702177175048661e+00 3.545941056043596440e+00
3.660902894564549825e+01 3.054444048941959533e+00 3.544092462734474758e+00
3.656744756675832519e+01 3.054131993527314570e+00 3.542073430874189466e+00
3.652222333895672080e+01 3.053753290354893402e+00 3.539586322110613192e+00
3.647306396570254350e+01 3.053310185745836236e+00 3.536685614027253344e+00
3.641967311029041809e+01 3.052805183509557096e+00 3.533244035431502006e+00
3.636172757275777201e+01 3.052235130925429196e+00 3.529274736142123281e+00
3.629890981866871869e+01 3.051604984970881951e+00 3.524518678998696863e+00
3.623086016767823736e+01 3.050864235333382801e+00 3.519093375527758472e+00
3.615722883408316335e+01 3.049993736366011010e+00 3.512805979982299043e+00
3.607765217809492242e+01 3.049000653445324005e+00 3.505520313064206306e+00
3.599173998095064775e+01 3.047965676796640988e+00 3.497277479150556090e+00
3.589910688864411981e+01 3.047050222246813433e+00 3.487984126430023757e+00
3.579935977557929050e+01 3.046453037006347397e+00 3.477606753746642188e+00
3.569211004629904238e+01 3.046172743247984815e+00 3.466104866627872649e+00
3.557697714428962854e+01 3.046109963833520062e+00 3.453424453425814722e+00
3.545358671448059340e+01 3.046356662273324911e+00 3.439564700476420267e+00
3.532159099382786849e+01 3.046749322034923324e+00 3.424455069852528677e+00
3.518065623847174095e+01 3.047098635832066194e+00 3.408132729065483257e+00
3.503048254900301117e+01 3.047369169202767569e+00 3.390646735959197855e+00
3.487080910899732089e+01 3.047616340039005944e+00 3.372088586940713562e+00
3.470142400035503272e+01 3.047869151906720919e+00 3.352587370508838038e+00
3.452217570473151653e+01 3.048162497019279105e+00 3.332297325784067343e+00
3.433298761592597259e+01 3.048496961281241813e+00 3.311356033402101051e+00
3.413386855322468705e+01 3.048868227296682942e+00 3.289873991510190443e+00
3.392491344901074513e+01 3.049286702570499941e+00 3.268008026394906729e+00
3.370631892345394931e+01 3.049777995688441212e+00 3.245887333823983756e+00
3.347839218912364601e+01 3.050334629305011092e+00 3.223583612016068578e+00
3.324153531482599533e+01 3.050938599708013399e+00 3.201313689077334601e+00
3.299627397380032079e+01 3.051558277246303685e+00 3.179172598106284386e+00
3.274323231624706665e+01 3.052144883621284777e+00 3.157395524207640136e+00
3.248313873841553345e+01 3.052689427601906313e+00 3.136286174005995075e+00
3.221682406938413834e+01 3.053174469021647575e+00 3.116181322346075255e+00
3.194521394567048844e+01 3.053566244633725724e+00 3.097443385703595897e+00
3.166930813859293536e+01 3.053843429589317982e+00 3.080633710469840914e+00
3.139018236147315122e+01 3.053989492549152196e+00 3.066369588017430647e+00
3.110898232914898287e+01 3.053971444063318774e+00 3.055168942472762605e+00
3.082689613764417658e+01 3.053856122856858590e+00 3.047686977547332088e+00
3.054514889910372588e+01 3.053764202588331145e+00 3.044525522507789184e+00
3.026498683689066382e+01 3.053768468813835568e+00 3.046338986306779351e+00
2.998765850806026734e+01 3.053841405940794118e+00 3.053459469680006144e+00
2.971437666919647924e+01 3.053842971707234177e+00 3.065921716446368794e+00
2.944629365138030508e+01 3.053665913505678287e+00 3.083714052521306481e+00
2.918449718829467798e+01 3.053334498568989197e+00 3.106801768702691646e+00
2.892995686998089511e+01 3.052860607660888181e+00 3.134795649390746952e+00
2.868353035448535593e+01 3.052291170957347699e+00 3.167328622481123901e+00
2.844597538969215123e+01 3.051667886026019350e+00 3.204072626102843824e+00
2.821783389091906713e+01 3.051029616488768692e+00 3.244163055627371950e+00
2.799952865659400558e+01 3.050414600606696780e+00 3.286869278715265352e+00
2.779139064786843250e+01 3.049734829341957276e+00 3.331689878106913305e+00
2.759352036623062077e+01 3.048967398176102961e+00 3.377641630443422915e+00
2.740594317808529823e+01 3.048174330009795430e+00 3.424030988292361410e+00
2.722863755903151883e+01 3.047382028383527786e+00 3.470424713358129409e+00
2.706147901447696213e+01 3.046632020565449128e+00 3.516378629778851295e+00
2.690427507157967568e+01 3.045944702194240072e+00 3.561528323370172000e+00
2.675682754907076699e+01 3.045320282853594129e+00 3.605752349227729248e+00
2.661889568208706436e+01 3.044785281197704752e+00 3.648984758725394517e+00
2.649020230364794770e+01 3.044335525554190180e+00 3.691200732749229552e+00
2.637043751129094460e+01 3.044022145879208274e+00 3.732394216271276655e+00
2.625929197151779704e+01 3.044021885173745723e+00 3.772642358694332287e+00
2.615639928674485404e+01 3.044400708416447277e+00 3.811918175265804010e+00
2.606139268424405486e+01 3.045038582125984661e+00 3.850234894531628704e+00
2.597385350521519598e+01 3.045783447496758445e+00 3.887503402966808963e+00
2.589333085161237236e+01 3.046557681566610665e+00 3.923585694457987660e+00
2.581938643298514435e+01 3.047212466040129630e+00 3.958393318578750097e+00
2.575164020690148092e+01 3.047833819669492073e+00 3.991957397997060397e+00
2.568967181918550935e+01 3.048480179280465219e+00 4.024217550889042982e+00
2.563316375968109639e+01 3.049066583549350451e+00 4.055293166479655653e+00
2.558161934929324843e+01 3.049554054450621887e+00 4.084960105597505553e+00
2.553481329832474600e+01 3.050187786273784507e+00 4.113449333826277865e+00
2.549235920897090324e+01 3.050797355463525928e+00 4.140694986973371350e+00
2.545395038298547874e+01 3.051377927389424372e+00 4.166739115131029791e+00
2.541933024808369979e+01 3.051904284975654136e+00 4.191667845385530278e+00
2.538820869409629566e+01 3.052377494837468674e+00 4.215488289314416548e+00
2.536027514966416518e+01 3.052800522658194460e+00 4.238177360075625622e+00
2.533552789855202292e+01 3.053169621653264887e+00 4.260041050516825578e+00
2.531360932606538938e+01 3.053488858736794764e+00 4.280946869329720350e+00
2.529429289760165744e+01 3.053761727913677948e+00 4.300893802255082221e+00
2.527760597238600226e+01 3.053983103141155286e+00 4.320098801470835248e+00
2.526336920674615172e+01 3.054161779288494305e+00 4.338552250308032043e+00
2.525134278611245620e+01 3.054298204573459685e+00 4.356179810922837348e+00
2.524131679923320348e+01 3.054398299724561561e+00 4.372950850998708283e+00
2.523346630287408843e+01 3.054461006804624734e+00 4.389028445850442495e+00
2.522759155312401091e+01 3.054494876180322560e+00 4.404283891161891340e+00
2.522295719002126546e+01 3.054516726079636424e+00 4.418504438320394634e+00
2.522036481878837932e+01 3.054506159374357654e+00 4.431952253319399126e+00
2.521852560423446477e+01 3.054486208476080211e+00 4.444306226561645978e+00
2.521822114808574611e+01 3.054441296127030636e+00 4.455750032813853068e+00
2.521794310462809818e+01 3.054400489882770575e+00 4.466210043279282615e+00
2.521969303085571923e+01 3.054347020802209656e+00 4.476525164053411387e+00
2.522160712899155754e+01 3.054288535469885435e+00 4.487807998209472515e+00
2.522510813490422521e+01 3.054198332259439930e+00 4.499793298507264616e+00
2.522946899149960487e+01 3.054089770099409851e+00 4.512764334106488917e+00
2.523593120352679620e+01 3.053953628441792745e+00 4.526237279236370981e+00
2.524377457561201155e+01 3.053832800717528606e+00 4.540556182162814203e+00
2.525368820175855333e+01 3.053675082254789785e+00 4.555418848102779528e+00
2.526592566416302077e+01 3.053477165358704948e+00 4.570608032928834774e+00
2.528037300060796611e+01 3.053331107025984092e+00 4.586253538101940030e+00
2.529723090400748475e+01 3.053157012558940675e+00 4.602271839147521248e+00
2.531678769059112355e+01 3.052937821474230873e+00 4.618441972978723165e+00
2.533922787940026211e+01 3.052764296672068944e+00 4.634672565124485999e+00
2.536449945987211763e+01 3.052552358052803783e+00 4.651213248108341247e+00
2.539289278055087351e+01 3.052314428208522390e+00 4.667871516673272048e+00
2.542474108301315994e+01 3.052057876531676150e+00 4.684371619748413096e+00
2.546005371663703798e+01 3.051761048573341739e+00 4.701046572228175791e+00
2.549915403147148751e+01 3.051420692469752449e+00 4.717704941345334468e+00
2.554232869816470952e+01 3.051044174515626040e+00 4.734202886832057366e+00
2.558982142363874246e+01 3.050667807989216662e+00 4.750552789805181142e+00
2.564192186275089114e+01 3.050322123854325440e+00 4.766701793438633317e+00
2.569897772434977057e+01 3.050002060766518142e+00 4.782436605746860359e+00
2.576126385940708374e+01 3.049840475694024278e+00 4.797845046008064607e+00
2.582913923742433582e+01 3.049784671753406506e+00 4.812736292004134775e+00
2.590295720639780441e+01 3.049814612968118954e+00 4.826995409088987721e+00
2.598306441383081378e+01 3.049922977337491847e+00 4.840562051719325964e+00
2.606983366648647404e+01 3.050058496847845468e+00 4.853281117614278273e+00
2.616364416510686297e+01 3.050183128849193626e+00 4.864942568797258282e+00
2.626487031407593875e+01 3.050257817347140410e+00 4.875313782974500576e+00
2.637385471575268880e+01 3.050269307527722518e+00 4.884420545112413414e+00
2.649097163355914475e+01 3.050178033993950599e+00 4.891792881703417528e+00
2.661654089011661739e+01 3.049985800997797369e+00 4.897391805611636784e+00
2.675087071505880587e+01 3.049685511210393329e+00 4.900972284571039950e+00
2.689423693913501268e+01 3.049241483466869962e+00 4.902310828431902578e+00
2.704687333788398007e+01 3.048622781601533216e+00 4.901305092352585824e+00
2.720896896664665832e+01 3.047822670283609092e+00 4.897750928932804726e+00
2.738065758654132509e+01 3.046837798277531206e+00 4.891562928254452380e+00
2.756201278339125693e+01 3.045651437566854636e+00 4.882674129063869550e+00
2.775303879506998328e+01 3.044256497434670194e+00 4.871037666263053900e+00
2.795366914239821199e+01 3.042660025054307216e+00 4.856771811621556800e+00
2.816374048270164110e+01 3.040861169913515738e+00 4.839818591563223471e+00
2.838301657925562793e+01 3.038915227308841338e+00 4.820398994606807541e+00
2.861115928082659821e+01 3.036936355190341885e+00 4.798681918316536787e+00
2.884773237641786992e+01 3.035021607463006532e+00 4.774890336102924238e+00
2.909220110982282037e+01 3.033242676377038372e+00 4.749320160634861843e+00
2.934391819814473834e+01 3.031547486387514923e+00 4.722202663335177242e+00
2.960213178993017280e+01 3.029794002387181884e+00 4.693756983436633057e+00
2.986599441480464634e+01 3.027932877461779970e+00 4.664203350352907229e+00
3.013456060423904148e+01 3.026077382608245436e+00 4.633658050297458253e+00
3.040681254109404463e+01 3.024292472611035176e+00 4.602268850674143152e+00
3.068166810811104028e+01 3.022617356108447950e+00 4.570154449325474211e+00
3.095800013022904196e+01 3.021073065361378873e+00 4.537426131621565162e+00
3.123465432025293254e+01 3.019667677507016368e+00 4.504184809130487466e+00
3.151047196767741099e+01 3.018415721003105290e+00 4.470548841624824021e+00
3.178430773865587966e+01 3.017315662449078228e+00 4.436640053706370601e+00
3.205504393304298816e+01 3.016378788031551572e+00 4.402544208443789131e+00
3.232160781884196865e+01 3.015590389295604634e+00 4.368310224246767071e+00
3.258298884094423187e+01 3.014964219693208491e+00 4.333960231225310267e+00
3.283827211514803679e+01 3.014496286860095964e+00 4.299637311038608800e+00
3.308662365775681735e+01 3.014201369473453962e+00 4.265402849551596098e+00
3.332731813948545607e+01 3.014106270330567661e+00 4.231381778349687650e+00
3.355974518132548923e+01 3.014245330498895648e+00 4.197757565229247589e+00
3.378339470345468243e+01 3.014612523450250769e+00 4.164648573705928669e+00
3.399788227868575063e+01 3.015191968986188353e+00 4.132278586825383293e+00
3.420290456373556509e+01 3.015970173252162656e+00 4.100693288195279784e+00
3.439828073589816171e+01 3.016907485109936005e+00 4.070063915632919915e+00
3.458391468628322230e+01 3.017988254084040367e+00 4.040480989446110449e+00
3.475979291400027904e+01 3.019230733667917832e+00 4.011993339476488174e+00
3.492598635889096670e+01 3.020558264727310593e+00 3.984667230271435212e+00
3.508263249688437213e+01 3.021910383489174734e+00 3.958536435865060543e+00
3.522992327413771818e+01 3.023221393431178683e+00 3.933587450330643609e+00
3.536810833537001031e+01 3.024362185972570227e+00 3.909831978612233527e+00
3.549747756265927734e+01 3.025442337879570065e+00 3.887272904431700926e+00
3.561835760473080370e+01 3.026838851911801687e+00 3.865938684222952393e+00
3.573110245762665471e+01 3.028571784389682442e+00 3.845845382241376953e+00
3.583607615041998429e+01 3.030567321105857470e+00 3.826948754702235167e+00
3.593365798986535964e+01 3.032939136989548423e+00 3.809238494515656992e+00
3.602422901575162228e+01 3.035580541842120894e+00 3.792649831221293955e+00
3.610817498222478150e+01 3.038201380985205979e+00 3.777095876532505336e+00
3.618588338421922401e+01 3.040611446266196616e+00 3.762520602690202942e+00
3.625772615152117595e+01 3.042745385008806203e+00 3.748837677657996359e+00
3.632406804434486958e+01 3.044631028870529388e+00 3.735987857163195702e+00
3.638528042000446305e+01 3.046321954500990081e+00 3.724006382764802225e+00
3.644169214181599159e+01 3.047819765716282880e+00 3.712770427979754650e+00
3.649364231287677285e+01 3.049165930651869694e+00 3.702290573301779464e+00
3.654144269748403673e+01 3.050330396243966735e+00 3.692505021511153007e+00
3.658539280891883294e+01 3.051346639957029261e+00 3.683383651877179865e+00
3.662576855280875776e+01 3.052221807466516612e+00 3.674854196372008719e+00
3.666286179448913174e+01 3.052949859962068579e+00 3.667000715464099336e+00
3.669686520222661841e+01 3.053564647308215196e+00 3.659522270843956537e+00
3.672806799140915501e+01 3.054071151138415541e+00 3.652637029009269565e+00
3.675668737724092239e+01 3.054447078235835722e+00 3.646301031083937882e+00
3.678287539113009075e+01 3.054783315346583983e+00 3.640256703044780995e+00
3.680686452270319364e+01 3.055041815855767506e+00 3.634657568164494368e+00
3.682884059791953035e+01 3.055212778836450038e+00 3.629513584512659818e+00
3.684896793341439292e+01 3.055369358202105978e+00 3.624801568670135588e+00
3.686735778943839392e+01 3.055514041122433078e+00 3.620328418727290387e+00
3.688414809139203498e+01 3.055565434961837301e+00 3.616058125677196422e+00
3.689951236379128829e+01 3.055602147917370726e+00 3.612148127968700440e+00
3.691356884608961764e+01 3.055635735906190309e+00 3.608570944998511720e+00
3.692642605186907190e+01 3.055666458221689030e+00 3.605298961540464031e+00
3.693818275093259729e+01 3.055673107765958463e+00 3.602302078069145708e+00
3.694892964188432671e+01 3.055632147616679006e+00 3.599551714192613439e+00
3.695871549970042480e+01 3.055593697649704232e+00 3.596897267470434478e+00
3.696760001063335466e+01 3.055557523062665481e+00 3.594253637956628999e+00
3.697571945626042833e+01 3.055523425785725333e+00 3.591836846722276100e+00
3.698313897907385694e+01 3.055492267805765216e+00 3.589628390810117420e+00
3.698991812561974513e+01 3.055463799059521701e+00 3.587610545910231874e+00
3.699610987014875008e+01 3.055415241554328087e+00 3.585762158968169189e+00
3.700176463923102688e+01 3.055351349223994539e+00 3.584069405813259834e+00
3.700692971133069165e+01 3.055291332586705710e+00 3.582522847603950567e+00
3.701164722313647104e+01 3.055236473235495520e+00 3.581110290376485317e+00
3.701595564030389340e+01 3.055186371194360984e+00 3.579820227720721171e+00
3.701989017274095062e+01 3.055140617011711690e+00 3.578642116788631089e+00
3.702348304429492032e+01 3.055098835960482262e+00 3.577566308843711074e+00
3.702676373856832726e+01 3.055060685179568747e+00 3.576583975656687286e+00
3.702975922575114964e+01 3.055025851036025752e+00 3.575687041585490888e+00
3.703249417171983282e+01 3.054994046693479515e+00 3.574868120965079221e+00
3.703499113061020154e+01 3.054965009872722792e+00 3.574120460445622705e+00
3.703727072202152470e+01 3.054938500791029465e+00 3.573437885932553737e+00
3.703935177604742535e+01 3.054914299743458184e+00 3.572814694026857918e+00
3.704125148748936880e+01 3.054892205493343837e+00 3.572245622202212090e+00
3.704298565314616098e+01 3.054872036593524243e+00 3.571726140773209490e+00
3.704456865601485305e+01 3.054853625765153513e+00 3.571251941212677750e+00
3.704601363666299108e+01 3.054836820179239520e+00 3.570819087171868134e+00
3.704733259934820211e+01 3.054821480222436048e+00 3.570423982691607101e+00
3.704853650927565667e+01 3.054807478365909823e+00 3.570063343068134110e+00
3.704963562238027208e+01 3.054797496447952732e+00 3.569734882830634337e+00
3.705063894612966635e+01 3.054789806905245264e+00 3.569435447923151816e+00
3.705050973711321660e+01 3.054768919756691847e+00 3.567775564366584273e+00
3.705038052809675975e+01 3.054748032608138875e+00 3.566115680810016730e+00
3.705024742149605999e+01 3.054701372809142779e+00 3.564456642123165153e+00
3.705011408245307791e+01 3.054653176030521333e+00 3.562797653746346604e+00
3.704998074341008873e+01 3.054604979251899888e+00 3.561138665369528056e+00
3.704984740436710666e+01 3.054556782473278442e+00 3.559479676992709507e+00
3.704971406532413170e+01 3.054508585694657441e+00 3.557820688615891402e+00
257 258
258 259
259 260
260 261
261 262
262 263
263 264
264 1
1 2
2 3
3 4
4 5
5 6
6 7
7 8
8 9
9 10
10 11
11 12
12 13
13 14
14 15
15 16
16 17
17 18
18 19
19 20
20 21
21 22
22 23
23 24
24 25
25 26
26 27
27 28
28 29
29 30
30 31
31 32
32 33
33 34
34 35
35 36
36 37
37 38
38 39
39 40
40 41
41 42
42 43
43 44
44 45
45 46
46 47
47 48
48 49
49 50
50 51
51 52
52 53
53 54
54 55
55 56
56 57
57 58
58 59
59 60
60 61
61 62
62 63
63 64
64 65
65 66
66 67
67 68
68 69
69 70
70 71
71 72
72 73
73 74
74 75
75 76
76 77
77 78
78 79
79 80
80 81
81 82
82 83
83 84
84 85
85 86
86 87
87 88
88 89
89 90
90 91
91 92
92 93
93 94
94 95
95 96
96 97
97 98
98 99
99 100
100 101
101 102
102 103
103 104
104 105
105 106
106 107
107 108
108 109
109 110
110 111
111 112
112 113
113 114
114 115
115 116
116 117
117 118
118 119
119 120
120 121
121 122
122 123
123 124
124 125
125 126
126 127
127 128
128 129
129 130
130 131
131 132
132 133
133 134
134 135
135 136
136 137
137 138
138 139
139 140
140 141
141 142
142 143
143 144
144 145
145 146
146 147
147 148
148 149
149 150
150 151
151 152
152 153
153 154
154 155
155 156
156 157
157 158
158 159
159 160
160 161
161 162
162 163
163 164
164 165
165 166
166 167
167 168
168 169
169 170
170 171
171 172
172 173
173 174
174 175
175 176
176 177
177 178
178 179
179 180
180 181
181 182
182 183
183 184
184 185
185 186
186 187
187 188
188 189
189 190
190 191
191 192
192 193
193 194
194 195
195 196
196 197
197 198
198 199
199 200
200 201
201 202
202 203
203 204
204 205
205 206
206 207
207 208
208 209
209 210
210 211
211 212
212 213
213 214
214 215
215 216
216 217
217 218
218 219
219 220
220 221
221 222
222 223
223 224
224 225
225 226
226 227
227 228
228 229
229 230
230 231
231 232
232 233
233 234
234 235
235 236
236 237
237 238
238 239
239 240
240 241
241 242
242 243
243 244
244 245
245 246
246 247
247 248
248 249
249 250
250 251
251 252
252 253
253 254
254 255
255 256
256 257
