Title = "TSurf curve FE data" 
Variables = "CoordinateX" "CoordinateY" "CoordinateZ" 
Zone T= "extracted_sharpness_003"
Nodes=51, Elements=50, ZONETYPE=FELineSeg
DATAPACKING=POINT
6.999999880790710449e-01 7.500000000000000000e-01 2.500000000000000000e+00
6.499999761581420898e-01 7.500000000000000000e-01 2.500000000000000000e+00
6.000000238418579102e-01 7.500000000000000000e-01 2.500000000000000000e+00
5.500000119209289551e-01 7.500000000000000000e-01 2.500000000000000000e+00
5.000000000000000000e-01 7.500000000000000000e-01 2.500000000000000000e+00
4.499999880790710449e-01 7.500000000000000000e-01 2.500000000000000000e+00
3.999999761581420898e-01 7.500000000000000000e-01 2.500000000000000000e+00
3.499999642372131348e-01 7.500000000000000000e-01 2.500000000000000000e+00
2.999999523162841797e-01 7.500000000000000000e-01 2.500000000000000000e+00
7.500000000000000000e-01 7.500000000000000000e-01 2.450000047683715820e+00
7.500000000000000000e-01 7.500000000000000000e-01 2.400000095367431641e+00
7.500000000000000000e-01 7.500000000000000000e-01 2.349999904632568359e+00
7.500000000000000000e-01 7.500000000000000000e-01 2.299999952316284180e+00
7.500000000000000000e-01 7.500000000000000000e-01 2.250000000000000000e+00
7.500000000000000000e-01 7.500000000000000000e-01 2.200000047683715820e+00
7.500000000000000000e-01 7.500000000000000000e-01 2.150000095367431641e+00
7.500000000000000000e-01 7.500000000000000000e-01 2.099999904632568359e+00
7.500000000000000000e-01 7.500000000000000000e-01 2.049999952316284180e+00
7.500000000000000000e-01 7.500000000000000000e-01 2.000000000000000000e+00
7.500000000000000000e-01 7.500000000000000000e-01 1.949999928474426270e+00
7.500000000000000000e-01 7.500000000000000000e-01 1.899999856948852539e+00
7.500000000000000000e-01 7.500000000000000000e-01 1.849999904632568359e+00
7.500000000000000000e-01 7.500000000000000000e-01 1.799999952316284180e+00
7.500000000000000000e-01 7.500000000000000000e-01 1.749999880790710449e+00
7.500000000000000000e-01 7.500000000000000000e-01 1.699999809265136719e+00
7.500000000000000000e-01 7.500000000000000000e-01 1.649999856948852539e+00
7.500000000000000000e-01 7.500000000000000000e-01 1.599999904632568359e+00
7.500000000000000000e-01 7.500000000000000000e-01 1.549999833106994629e+00
7.500000000000000000e-01 7.500000000000000000e-01 1.499999880790710449e+00
7.500000000000000000e-01 7.500000000000000000e-01 1.449999928474426270e+00
7.500000000000000000e-01 7.500000000000000000e-01 1.399999976158142090e+00
7.500000000000000000e-01 7.500000000000000000e-01 1.350000023841857910e+00
7.500000000000000000e-01 7.500000000000000000e-01 1.300000071525573730e+00
7.500000000000000000e-01 7.500000000000000000e-01 1.250000119209289551e+00
7.500000000000000000e-01 7.500000000000000000e-01 1.200000166893005371e+00
7.500000000000000000e-01 7.500000000000000000e-01 1.150000214576721191e+00
7.500000000000000000e-01 7.500000000000000000e-01 1.100000262260437012e+00
7.500000000000000000e-01 7.500000000000000000e-01 1.050000309944152832e+00
7.500000000000000000e-01 7.500000000000000000e-01 1.000000357627868652e+00
7.500000000000000000e-01 7.500000000000000000e-01 9.500004053115844727e-01
7.500000000000000000e-01 7.500000000000000000e-01 9.000004529953002930e-01
7.500000000000000000e-01 7.500000000000000000e-01 8.500005006790161133e-01
7.500000000000000000e-01 7.500000000000000000e-01 8.000005483627319336e-01
7.500000000000000000e-01 7.500000000000000000e-01 7.500005960464477539e-01
7.500000000000000000e-01 7.500000000000000000e-01 7.000006437301635742e-01
7.500000000000000000e-01 7.500000000000000000e-01 6.500006914138793945e-01
7.500000000000000000e-01 7.500000000000000000e-01 6.000007390975952148e-01
7.500000000000000000e-01 7.500000000000000000e-01 5.500007867813110352e-01
7.500000000000000000e-01 7.500000000000000000e-01 2.500000000000000000e+00
7.500000000000000000e-01 7.500000000000000000e-01 5.000000000000000000e-01
2.500000000000000000e-01 7.500000000000000000e-01 2.500000000000000000e+00
50 48
48 47
47 46
46 45
45 44
44 43
43 42
42 41
41 40
40 39
39 38
38 37
37 36
36 35
35 34
34 33
33 32
32 31
31 30
30 29
29 28
28 27
27 26
26 25
25 24
24 23
23 22
22 21
21 20
20 19
19 18
18 17
17 16
16 15
15 14
14 13
13 12
12 11
11 10
10 49
49 1
1 2
2 3
3 4
4 5
5 6
6 7
7 8
8 9
9 51
