Title = "TSurf curve FE data" 
Variables = "CoordinateX" "CoordinateY" "CoordinateZ" 
Zone T= "int_cube_uns__geom_rect_uns__geom_000"
Nodes=180, Elements=180, ZONETYPE=FELineSeg
DATAPACKING=POINT
1.946948525931734841e-01 6.430559631990807601e-01 1.000000000000000000e+00
1.946576988606773251e-01 6.434806323047548293e-01 1.000000000000000000e+00
2.139577082427486787e-01 4.228805156238948371e-01 1.000000000000000000e+00
2.129467593755103305e-01 4.344357140518462224e-01 9.999999999999998890e-01
2.127123950389819274e-01 4.371145106762679422e-01 9.999999999999998890e-01
2.124747727620303894e-01 4.398305457301251997e-01 9.999999999999998890e-01
2.119596686702898691e-01 4.457182124400861367e-01 1.000000000000000000e+00
1.908508044555909389e-01 6.869936344659818284e-01 1.000000000000000000e+00
1.883674878533786456e-01 7.153780731135838122e-01 1.000000000000000000e+00
1.909433284500921535e-01 6.859360803695727649e-01 1.000000000000000000e+00
2.090976684397497509e-01 4.784310247656745618e-01 1.000000000000000000e+00
2.078852151047596020e-01 4.922894297992693180e-01 1.000000000000000000e+00
2.103058320589585029e-01 4.646216514078255755e-01 1.000000000000000000e+00
2.682101533353781209e-01 7.763302260169060443e-01 1.000000000000000000e+00
2.686497084091316601e-01 7.763686821028547014e-01 1.000000000000000000e+00
2.718196767797596003e-01 7.766460183990204769e-01 1.000000000000000000e+00
2.201080432713455326e-01 3.525818645675274920e-01 1.000000000000000000e+00
2.199639028049865386e-01 3.542293976369552677e-01 1.000000000000000000e+00
2.198153136336312985e-01 3.559277796371696501e-01 1.000000000000000000e+00
2.191010418131148496e-01 3.640919439040615768e-01 1.000000000000000000e+00
2.209155045623449332e-01 3.433525397789491951e-01 1.000000000000000000e+00
2.182355352908999513e-01 7.719580134739760791e-01 1.000000000000000000e+00
2.230292577274562427e-01 7.723774098432646396e-01 1.000000000000000000e+00
2.498470175733005783e-01 2.728137410392629802e-01 1.000000000000000000e+00
2.574969356101490803e-01 2.734830221443897424e-01 1.000000000000000000e+00
3.085881116819760850e-01 7.798628396285552933e-01 1.000000000000000000e+00
3.189111262577122297e-01 7.807659863773449560e-01 1.000000000000000000e+00
3.201029571365883175e-01 7.808702580680867422e-01 1.000000000000000000e+00
3.351126757781502929e-01 7.821834382919371498e-01 1.000000000000000000e+00
3.143567463735018053e-01 2.784576109964124191e-01 1.000000000000000000e+00
3.463920276125238562e-01 2.812603349376915918e-01 1.000000000000000000e+00
3.680958209171567019e-01 7.850690895790304324e-01 1.000000000000000000e+00
3.707866482976018840e-01 7.853045064703245703e-01 1.000000000000000000e+00
4.635727078966991876e-01 7.934222348184862827e-01 1.000000000000000000e+00
4.738991190645110430e-01 7.943256787305774669e-01 1.000000000000000000e+00
4.762801180861447881e-01 7.945339891528367948e-01 1.000000000000000000e+00
4.158762932955117897e-01 7.892493392500501415e-01 1.000000000000000000e+00
4.234020470905314748e-01 7.899077573916015726e-01 1.000000000000000000e+00
7.161760133053672872e-01 4.193556441889397246e-01 1.000000000000000000e+00
7.148407040755577757e-01 4.346182985260229614e-01 1.000000000000000000e+00
5.126064551665076019e-01 7.977121318347898393e-01 1.000000000000000000e+00
5.152302448242639388e-01 7.979416836853201467e-01 1.000000000000000000e+00
5.112406831854774403e-01 7.975926422694884499e-01 1.000000000000000000e+00
5.178158855539665151e-01 7.981678979371199523e-01 1.000000000000000000e+00
5.292572279980707339e-01 7.991688856964970222e-01 1.000000000000000000e+00
7.248393177682351807e-01 3.203336210636139603e-01 1.000000000000000000e+00
7.220294502711479545e-01 3.524505535191508332e-01 1.000000000000000000e+00
7.138754278078753845e-01 4.456514567522463777e-01 1.000000000000000000e+00
7.113249126731497896e-01 4.748039781411442228e-01 1.000000000000000000e+00
6.065126622012416702e-01 8.059278603850473788e-01 1.000000000000000000e+00
6.355758398668134301e-01 8.084705589568247364e-01 1.000000000000000000e+00
7.200285678382459809e-01 3.753207443788969533e-01 1.000000000000000000e+00
7.183009147915200288e-01 3.950679090639996893e-01 1.000000000000000000e+00
5.588875365876211365e-01 8.017612017948575476e-01 1.000000000000000000e+00
5.823333785082723812e-01 8.038124471697354334e-01 1.000000000000000000e+00
6.798411496413063748e-01 3.104333529778824929e-01 1.000000000000000000e+00
6.836412679897472255e-01 3.107658202534278602e-01 1.000000000000000000e+00
6.849162592022899343e-01 3.108773675306205631e-01 1.000000000000000000e+00
7.080136852664458136e-01 5.126514805861089874e-01 1.000000000000000000e+00
7.075726013887598809e-01 5.176930923779633487e-01 1.000000000000000000e+00
6.817792697818940706e-01 8.125122217069075115e-01 1.000000000000000000e+00
6.817792165080656108e-01 8.125128306295528180e-01 1.000000000000000000e+00
6.541344691320580829e-01 8.100942286281143101e-01 1.000000000000000000e+00
6.817786061416829524e-01 8.125127772294137296e-01 1.000000000000000000e+00
6.826597448850008076e-01 8.024483452271190531e-01 1.000000000000000000e+00
6.338156322343738713e-01 3.064066419718607936e-01 1.000000000000000000e+00
6.403892469349566907e-01 3.069817587365491485e-01 9.999999999999998890e-01
6.419910252297796882e-01 3.071218961788280688e-01 9.999999999999998890e-01
6.435444646191271767e-01 3.072578045148705583e-01 9.999999999999998890e-01
4.757087246801756097e-01 2.925740799357271493e-01 1.000000000000000000e+00
4.764203229632893999e-01 2.926363367184841024e-01 1.000000000000000000e+00
4.793572238002739017e-01 2.928932822476200681e-01 1.000000000000000000e+00
4.886026145786765973e-01 2.937021491305974452e-01 1.000000000000000000e+00
7.001304025555535882e-01 6.027578142890602786e-01 1.000000000000000000e+00
6.999463415645630349e-01 6.048616410429801249e-01 1.000000000000000000e+00
6.975174547016530502e-01 6.326239449235302459e-01 1.000000000000000000e+00
6.963200109983007646e-01 6.463107890824617563e-01 1.000000000000000000e+00
6.961023265193514442e-01 6.487989340623503409e-01 1.000000000000000000e+00
6.956072698645705543e-01 6.544574575193257138e-01 1.000000000000000000e+00
5.287391099092942914e-01 2.972136374656876856e-01 1.000000000000000000e+00
5.362351765065845877e-01 2.978694583139859242e-01 1.000000000000000000e+00
6.097367313022107327e-01 3.043000111101327176e-01 1.000000000000000000e+00
6.317935758285257997e-01 3.062297349593390838e-01 1.000000000000000000e+00
5.815461867540365759e-01 3.018336580435449501e-01 1.000000000000000000e+00
5.839452408874955536e-01 3.020435480834076092e-01 1.000000000000000000e+00
6.873107453975229042e-01 7.492871661088218449e-01 1.000000000000000000e+00
6.854288778383177405e-01 7.707970107374053637e-01 9.999999999999998890e-01
6.845496021722187185e-01 7.808471775894648692e-01 1.000000000000000000e+00
3.912230697901210030e-01 2.851825429022838421e-01 1.000000000000000000e+00
3.936165501805201639e-01 2.853919453028153641e-01 1.000000000000000000e+00
3.689995972918920231e-01 2.832382409945086166e-01 1.000000000000000000e+00
6.892129393551964522e-01 7.275449896826149399e-01 1.000000000000000000e+00
6.890728019129175319e-01 7.291467679774378263e-01 1.000000000000000000e+00
6.892386353084243300e-01 7.272512835932505304e-01 1.000000000000000000e+00
6.889368935768750424e-01 7.307002073667852038e-01 1.000000000000000000e+00
6.884633302617056971e-01 7.361130608278413368e-01 1.000000000000000000e+00
4.351398362795773633e-01 2.890247621088264385e-01 1.000000000000000000e+00
4.410583035689205067e-01 2.895425609020930158e-01 1.000000000000000000e+00
4.224791804359465663e-01 2.879170982497055165e-01 1.000000000000000000e+00
2.003873106717763974e-01 5.779908696293729609e-01 1.000000000000000000e+00
1.987500021465677946e-01 5.967053917082640879e-01 1.000000000000000000e+00
2.018704412344986820e-01 5.610386097256336857e-01 1.000000000000000000e+00
2.036876188931816545e-01 5.402681740434782665e-01 1.000000000000000000e+00
1.982534242665726643e-01 6.023813028490034860e-01 1.000000000000000000e+00
1.980218319388855341e-01 6.050284152673853777e-01 1.000000000000000000e+00
1.984884978653339849e-01 5.996943993201631073e-01 1.000000000000000000e+00
2.253976873543404036e-01 7.725846205859759896e-01 1.000000000000000000e+00
2.654944907249605635e-01 7.760926363245332915e-01 9.999999999999998890e-01
2.670479301143083295e-01 7.762285446605757810e-01 9.999999999999998890e-01
2.054836931147228929e-01 5.197389517516203261e-01 1.000000000000000000e+00
2.052223747388838559e-01 5.227258344551333202e-01 1.000000000000000000e+00
2.055910551619608562e-01 5.185117979363589313e-01 1.000000000000000000e+00
2.057449581418390461e-01 5.167526788268002047e-01 1.000000000000000000e+00
1.946273057539046059e-01 6.438280271048106851e-01 1.000000000000000000e+00
1.945907555049473381e-01 6.442457983620708539e-01 1.000000000000000000e+00
2.153315362385436749e-01 4.071775897769600583e-01 1.000000000000000000e+00
1.873397043895339287e-01 7.271256918612423181e-01 1.000000000000000000e+00
1.871604390905495241e-01 7.291747036047039332e-01 1.000000000000000000e+00
1.911318427872379100e-01 6.837813516361763710e-01 1.000000000000000000e+00
1.909892116917831228e-01 6.854116325172245894e-01 1.000000000000000000e+00
2.185065457230005448e-01 3.708870653078553681e-01 1.000000000000000000e+00
2.163329037802380062e-01 3.957319064011065035e-01 1.000000000000000000e+00
1.855553317407475644e-01 7.475211645644870284e-01 1.000000000000000000e+00
1.836819208833350703e-01 7.689343486492731250e-01 1.000000000000000000e+00
1.836818674621927550e-01 7.689349592557237489e-01 1.000000000000000000e+00
1.836824763848379227e-01 7.689350125295522087e-01 1.000000000000000000e+00
2.232122713163098848e-01 3.171003756538866014e-01 1.000000000000000000e+00
2.240250246880208518e-01 3.078105621059842867e-01 1.000000000000000000e+00
2.236069701224730200e-01 3.125889476556042434e-01 1.000000000000000000e+00
2.690699387510860352e-01 2.744955287221715889e-01 1.000000000000000000e+00
2.990158194046930729e-01 2.771154537986624811e-01 1.000000000000000000e+00
3.092398535647302715e-01 2.780099408831675500e-01 1.000000000000000000e+00
3.107841068936604279e-01 2.781450455430611313e-01 1.000000000000000000e+00
3.123744079466531653e-01 2.782841788567913532e-01 1.000000000000000000e+00
2.272596854305899416e-01 2.708382206367310197e-01 9.999999999999998890e-01
2.272603492024045657e-01 2.708376636099900092e-01 9.999999999999998890e-01
2.272597388360218518e-01 2.708376102098509208e-01 9.999999999999998890e-01
3.523665169338180969e-01 2.817830350236614767e-01 1.000000000000000000e+00
3.473957640293959259e-01 7.832580692670096933e-01 9.999999999999998890e-01
3.500073948946002544e-01 7.834865573610294565e-01 9.999999999999998890e-01
3.526579434788232881e-01 7.837184503142736736e-01 9.999999999999998890e-01
3.913330570487664750e-01 7.871020843122213950e-01 1.000000000000000000e+00
4.296817315438147267e-01 7.904571585917837817e-01 1.000000000000000000e+00
4.326186323807990064e-01 7.907141041209196919e-01 1.000000000000000000e+00
4.355539733388592571e-01 7.909709131783333458e-01 1.000000000000000000e+00
7.144116630680841240e-01 4.395222596814762350e-01 1.000000000000000000e+00
7.038151704306750966e-01 5.606407247528871762e-01 1.000000000000000000e+00
7.035583613732614428e-01 5.635760657109475380e-01 1.000000000000000000e+00
7.033014158441255326e-01 5.665129665479319288e-01 1.000000000000000000e+00
7.017279325852588956e-01 5.844979624942967522e-01 1.000000000000000000e+00
7.038363916038050672e-01 5.603981656340853990e-01 1.000000000000000000e+00
5.966645473974337976e-01 8.050662619826124411e-01 9.999999999999998890e-01
5.997991017793578017e-01 8.053404999562363553e-01 9.999999999999998890e-01
5.982548484504270903e-01 8.052053952963427186e-01 9.999999999999998890e-01
5.566724384102698098e-01 8.015674058157423731e-01 1.000000000000000000e+00
7.216991693695740118e-01 3.562256814987441733e-01 1.000000000000000000e+00
7.110121551894618142e-01 4.783788125377791967e-01 1.000000000000000000e+00
7.107859409376618975e-01 4.809644532674822170e-01 1.000000000000000000e+00
7.105563890871315902e-01 4.835882429252391090e-01 1.000000000000000000e+00
7.069132746261124201e-01 5.252292317596337634e-01 1.000000000000000000e+00
6.399690165930014274e-01 8.088549121172321499e-01 1.000000000000000000e+00
7.253570878818946799e-01 3.144154815836800454e-01 1.000000000000000000e+00
7.253570344817555915e-01 3.144160919500626483e-01 1.000000000000000000e+00
7.253564789592493733e-01 3.144154283098516411e-01 1.000000000000000000e+00
7.180496525486844694e-01 3.979398496413185660e-01 1.000000000000000000e+00
7.179105192349543030e-01 3.995301506943113590e-01 1.000000000000000000e+00
7.181847572085779952e-01 3.963955963123883541e-01 1.000000000000000000e+00
7.071699359829192177e-01 5.222955790272355570e-01 9.999999999999998890e-01
6.924167583583358265e-01 6.909251709081495330e-01 1.000000000000000000e+00
6.927070968808970441e-01 6.876065864097702374e-01 1.000000000000000000e+00
5.590315604494880963e-01 2.998638834783743379e-01 1.000000000000000000e+00
5.616431913146922028e-01 3.000923715723941010e-01 1.000000000000000000e+00
5.563810118652653403e-01 2.996319905251301763e-01 1.000000000000000000e+00
6.963308146133712073e-01 6.461873031971462344e-01 1.000000000000000000e+00
6.965627075666154244e-01 6.435367546129233673e-01 1.000000000000000000e+00
5.177058982953219868e-01 2.962483565271825103e-01 1.000000000000000000e+00
4.734849820052289271e-01 2.923795276610705041e-01 1.000000000000000000e+00
6.004508436621120993e-01 3.034876012108485566e-01 1.000000000000000000e+00
3.938087105198240234e-01 2.854087571540837587e-01 1.000000000000000000e+00
3.964325001775809154e-01 2.856383090046140105e-01 1.000000000000000000e+00
162 164
164 58
58 57
57 56
56 69
69 68
68 67
67 66
66 83
83 82
82 178
178 85
85 84
84 172
172 171
171 173
173 81
81 80
80 176
176 73
73 72
72 71
71 70
70 177
177 98
98 97
97 99
99 180
180 179
179 90
90 89
89 91
91 138
138 31
31 30
30 134
134 133
133 132
132 131
131 130
130 25
25 24
24 136
136 137
137 135
135 128
128 129
129 127
127 21
21 17
17 18
18 19
19 20
20 121
121 122
122 116
116 3
3 4
4 5
5 6
6 7
7 13
13 11
11 12
12 113
113 112
112 110
110 111
111 103
103 102
102 100
100 101
101 106
106 104
104 105
105 1
1 2
2 114
114 115
115 119
119 120
120 10
10 8
8 9
9 117
117 118
118 123
123 124
124 125
125 126
126 22
22 23
23 107
107 108
108 109
109 14
14 15
15 16
16 26
26 27
27 28
28 29
29 139
139 140
140 141
141 32
32 33
33 142
142 37
37 38
38 143
143 144
144 145
145 34
34 35
35 36
36 43
43 41
41 42
42 44
44 45
45 155
155 54
54 55
55 152
152 154
154 153
153 50
50 51
51 161
161 63
63 64
64 62
62 61
61 65
65 88
88 87
87 86
86 96
96 95
95 93
93 92
92 94
94 169
169 170
170 79
79 78
78 77
77 174
174 175
175 76
76 75
75 74
74 150
150 149
149 148
148 147
147 151
151 160
160 168
168 60
60 59
59 159
159 158
158 157
157 49
49 48
48 146
146 40
40 39
39 166
166 165
165 167
167 53
53 52
52 156
156 47
47 46
46 163
163 162
