Title = "TSurf curve FE data" 
Variables = "CoordinateX" "CoordinateY" "CoordinateZ" 
Zone T= "int_cube_uns__geom_rect_uns__geom_000_remeshed"
Nodes=40, Elements=40, ZONETYPE=FELineSeg
DATAPACKING=POINT
7.253570878818946799e-01 3.144154815836800454e-01 1.000000000000000000e+00
6.755473529773075025e-01 3.100576944462971607e-01 1.000000000000000000e+00
6.257376180727199921e-01 3.056999073089142205e-01 1.000000000000000000e+00
5.759278831681327038e-01 3.013421201715312803e-01 1.000000000000000000e+00
5.261181482635454154e-01 2.969843330341483956e-01 1.000000000000000000e+00
4.763084133589581826e-01 2.926265458967654554e-01 1.000000000000000000e+00
4.264986784543709497e-01 2.882687587593825707e-01 1.000000000000000000e+00
3.766889435497837169e-01 2.839109716219996304e-01 1.000000000000000000e+00
3.268792086451963175e-01 2.795531844846168013e-01 1.000000000000000000e+00
2.770694737406090291e-01 2.751953973472338055e-01 1.000000000000000000e+00
2.272597388360218240e-01 2.708376102098509208e-01 9.999999999999997780e-01
2.229019516986389393e-01 3.206473451144382092e-01 1.000000000000000000e+00
2.185441645612560546e-01 3.704570800190254976e-01 1.000000000000000000e+00
2.141863774238731422e-01 4.202668149236127859e-01 1.000000000000000000e+00
2.098285902864902575e-01 4.700765498282000743e-01 1.000000000000000000e+00
2.054708031491072895e-01 5.198862847327874182e-01 1.000000000000000000e+00
2.011130160117243493e-01 5.696960196373748175e-01 1.000000000000000000e+00
1.967552288743414646e-01 6.195057545419621059e-01 1.000000000000000000e+00
1.923974417369585521e-01 6.693154894465493943e-01 1.000000000000000000e+00
1.880396545995756397e-01 7.191252243511366826e-01 1.000000000000000000e+00
1.836818674621929770e-01 7.689349592557237489e-01 1.000000000000000000e+00
2.334916023667800988e-01 7.732927463931067447e-01 1.000000000000000000e+00
2.833013372713676925e-01 7.776505335304897404e-01 1.000000000000000000e+00
3.331110721759549809e-01 7.820083206678724030e-01 1.000000000000000000e+00
3.829208070805419917e-01 7.863661078052553988e-01 1.000000000000000000e+00
4.327305419851293911e-01 7.907238949426382835e-01 1.000000000000000000e+00
4.825402768897169015e-01 7.950816820800213902e-01 1.000000000000000000e+00
5.323500117943040788e-01 7.994394692174040529e-01 1.000000000000000000e+00
5.821597466988913672e-01 8.037972563547870486e-01 1.000000000000000000e+00
6.319694816034787666e-01 8.081550434921700443e-01 1.000000000000000000e+00
6.817792165080657218e-01 8.125128306295519298e-01 1.000000000000000000e+00
6.861370036454486065e-01 7.627030957249646415e-01 1.000000000000000000e+00
6.904947907828313802e-01 7.128933608203772421e-01 1.000000000000000000e+00
6.948525779202143760e-01 6.630836259157899537e-01 1.000000000000000000e+00
6.992103650575971496e-01 6.132738910112026653e-01 1.000000000000000000e+00
7.035681521949802564e-01 5.634641561066153770e-01 1.000000000000000000e+00
7.079259393323631411e-01 5.136544212020283107e-01 1.000000000000000000e+00
7.122837264697459148e-01 4.638446862974408003e-01 1.000000000000000000e+00
7.166415136071289105e-01 4.140349513928535674e-01 1.000000000000000000e+00
7.209993007445117952e-01 3.642252164882663346e-01 1.000000000000000000e+00
1 2
2 3
3 4
4 5
5 6
6 7
7 8
8 9
9 10
10 11
11 12
12 13
13 14
14 15
15 16
16 17
17 18
18 19
19 20
20 21
21 22
22 23
23 24
24 25
25 26
26 27
27 28
28 29
29 30
30 31
31 32
32 33
33 34
34 35
35 36
36 37
37 38
38 39
39 40
40 1
